<preamble>

<basis_specs>
===============================================================================
Au                   Z=  79    Mass=  196.97        Charge= 0.17977+309
Lmxo=2 Lmxkb= 3    BasisType=split      Semic=T
L=0  Nsemic=1  Cnfigmx=6
          i=1  nzeta=1  polorb=0  (5s)  (semicore shell)
            splnorm:   0.15000    
               vcte:    40.000    
               rinn:    2.2467    
               qcoe:    0.0000    
               qyuk:    0.0000    
               qwid:   0.10000E-01
                rcs:    2.4964    
            lambdas:    1.0000    
          i=2  nzeta=2  polorb=0  (6s)  (to be polarized non-perturbatively)
            splnorm:   0.15000    
               vcte:    40.000    
               rinn:    5.7311    
               qcoe:    0.0000    
               qyuk:    0.0000    
               qwid:   0.10000E-01
                rcs:    6.3678      4.5341    
            lambdas:    1.0000      1.0000    
L=1  Nsemic=1  Cnfigmx=6
          i=1  nzeta=1  polorb=0  (5p)  (semicore shell)
            splnorm:   0.15000    
               vcte:    40.000    
               rinn:    2.6540    
               qcoe:    0.0000    
               qyuk:    0.0000    
               qwid:   0.10000E-01
                rcs:    2.9489    
            lambdas:    1.0000    
          i=2  nzeta=1  polorb=0  (6p)  (non-perturbative polarization shell)
            splnorm:   0.15000    
               vcte:    40.000    
               rinn:    5.7368    
               qcoe:    0.0000    
               qyuk:   0.49407-323
               qwid:   0.44466-322
                rcs:    6.3678    
            lambdas:    1.0000    
L=2  Nsemic=0  Cnfigmx=5
          i=1  nzeta=2  polorb=0  (5d)
            splnorm:   0.15000    
               vcte:    40.000    
               rinn:    4.3816    
               qcoe:    0.0000    
               qyuk:    0.0000    
               qwid:   0.10000E-01
                rcs:    4.8685      3.1858    
            lambdas:    1.0000      1.0000    
-------------------------------------------------------------------------------
L=0  Nkbl=2  erefs: 0.17977+309 0.17977+309
L=1  Nkbl=2  erefs: 0.17977+309 0.17977+309
L=2  Nkbl=1  erefs: 0.17977+309
L=3  Nkbl=1  erefs: 0.17977+309
===============================================================================
</basis_specs>

<pseudopotential_header>
 Au pb nrl pcec
 ONCVPSP-3.2017-10-31Hamann's oncvpsp                        
 5s 2.00  r= 1.46/5p 6.00  r= 1.56/5d10.00  r= 1.56/5f 0.00  r= 1.60/   5s:5p:5d:6s:
</pseudopotential_header>
</preamble>
Au                            # Symbol
Au                            # Label
   79                         # Atomic number
     19.0000000000                             # Valence charge
     196.970000000        # Mass 
     373.212323315        # Self energy 
   2   7                      # Lmax for basis, no. of nl orbitals 
   3   7                      # Lmax for projectors, no. of nl KB projectors
# PAOs:__________________________
  0  5  1  0  2.000000   #orbital l, n, z, is_polarized, population
 500    0.5002716975635044E-02     2.496355770841887     # npts, delta, cutoff
     0.000000000000000        0.9632070471247240    
    0.5002716975635044E-02    0.9632761700953597    
    0.1000543395127009E-01    0.9635747293482118    
    0.1500815092690513E-01    0.9640721472494975    
    0.2001086790254018E-01    0.9647680764801098    
    0.2501358487817522E-01    0.9656620494120883    
    0.3001630185381026E-01    0.9667534682712933    
    0.3501901882944531E-01    0.9680416041036147    
    0.4002173580508035E-01    0.9695255969223135    
    0.4502445278071539E-01    0.9712044561892040    
    0.5002716975635044E-01    0.9730770614598571    
    0.5502988673198549E-01    0.9751421631460999    
    0.6003260370762053E-01    0.9773983833798237    
    0.6503532068325557E-01    0.9798442169715279    
    0.7003803765889062E-01    0.9824780324603301    
    0.7504075463452566E-01    0.9852980732534679    
    0.8004347161016070E-01    0.9883024588538390    
    0.8504618858579575E-01    0.9914891861743458    
    0.9004890556143079E-01    0.9948561309378728    
    0.9505162253706584E-01    0.9984010491617431    
    0.1000543395127009         1.002121578725476    
    0.1050570564883359         1.006015241020622    
    0.1100597734639710         1.010079442681399    
    0.1150624904396060         1.014311477394817    
    0.1200652074152411         1.018708527788904    
    0.1250679243908761         1.023267667397589    
    0.1300706413665111         1.027985862700776    
    0.1350733583421462         1.032859975238006    
    0.1400760753177812         1.037886763794169    
    0.1450787922934163         1.043062886655528    
    0.1500815092690513         1.048384903934404    
    0.1550842262446864         1.053849279960703    
    0.1600869432203214         1.059452385738483    
    0.1650896601959564         1.065190501465691    
    0.1700923771715915         1.071059819115119    
    0.1750950941472265         1.077056445074642    
    0.1800978111228616         1.083176402844683    
    0.1851005280984966         1.089415635790850    
    0.1901032450741317         1.095770009949653    
    0.1951059620497667         1.102235316885107    
    0.2001086790254017         1.108807276594062    
    0.2051113960010368         1.115481540458005    
    0.2101141129766718         1.122253694239067    
    0.2151168299523069         1.129119261117918    
    0.2201195469279419         1.136073704771214    
    0.2251222639035770         1.143112432486223    
    0.2301249808792120         1.150230798310196    
    0.2351276978548471         1.157424106232086    
    0.2401304148304821         1.164687613394111    
    0.2451331318061171         1.172016533330698    
    0.2501358487817522         1.179406039232275    
    0.2551385657573872         1.186851267231409    
    0.2601412827330223         1.194347319708687    
    0.2651439997086573         1.201889268615825    
    0.2701467166842924         1.209472158813369    
    0.2751494336599274         1.217091011420437    
    0.2801521506355625         1.224740827173849    
    0.2851548676111975         1.232416589794063    
    0.2901575845868326         1.240113269355289    
    0.2951603015624676         1.247825825657121    
    0.3001630185381026         1.255549211595111    
    0.3051657355137377         1.263278376527621    
    0.3101684524893727         1.271008269636339    
    0.3151711694650078         1.278733843277846    
    0.3201738864406428         1.286450056323621    
    0.3251766034162779         1.294151877485870    
    0.3301793203919129         1.301834288626625    
    0.3351820373675479         1.309492288047500    
    0.3401847543431830         1.317120893757576    
    0.3451874713188181         1.324715146716877    
    0.3501901882944531         1.332270114052910    
    0.3551929052700881         1.339780892247790    
    0.3601956222457232         1.347242610293498    
    0.3651983392213582         1.354650432812823    
    0.3702010561969933         1.361999563143586    
    0.3752037731726283         1.369285246383801    
    0.3802064901482634         1.376502772395426    
    0.3852092071238984         1.383647478764411    
    0.3902119240995334         1.390714753714789    
    0.3952146410751685         1.397700038974632    
    0.4002173580508035         1.404598832591664    
    0.4052200750264386         1.411406691696450    
    0.4102227920020736         1.418119235211081    
    0.4152255089777087         1.424732146501334    
    0.4202282259533437         1.431241175970374    
    0.4252309429289787         1.437642143592057    
    0.4302336599046138         1.443930941382008    
    0.4352363768802489         1.450103535804691    
    0.4402390938558839         1.456155970114715    
    0.4452418108315189         1.462084366630745    
    0.4502445278071540         1.467884928940407    
    0.4552472447827890         1.473553944034637    
    0.4602499617584240         1.479087784370030    
    0.4652526787340591         1.484482909857794    
    0.4702553957096942         1.489735869777959    
    0.4752581126853292         1.494843304617609    
    0.4802608296609642         1.499801947831958    
    0.4852635466365993         1.504608627527154    
    0.4902662636122343         1.509260268063770    
    0.4952689805878693         1.513753891580070    
    0.5002716975635044         1.518086619434117    
    0.5052744145391395         1.522255673563976    
    0.5102771315147745         1.526258377765264    
    0.5152798484904095         1.530092158885411    
    0.5202825654660446         1.533754547934083    
    0.5252852824416796         1.537243181109282    
    0.5302879994173146         1.540555800738722    
    0.5352907163929497         1.543690256136183    
    0.5402934333685847         1.546644504372580    
    0.5452961503442199         1.549416610961609    
    0.5502988673198549         1.552004750459924    
    0.5553015842954899         1.554407206981800    
    0.5603043012711250         1.556622374628423    
    0.5653070182467600         1.558648757831947    
    0.5703097352223950         1.560484971614594    
    0.5753124521980301         1.562129741763116    
    0.5803151691736651         1.563581904919029    
    0.5853178861493001         1.564840408585112    
    0.5903206031249352         1.565904311048759    
    0.5953233201005702         1.566772781222781    
    0.6003260370762052         1.567445098404436    
    0.6053287540518403         1.567920651953437    
    0.6103314710274754         1.568198940889836    
    0.6153341880031105         1.568279573412707    
    0.6203369049787455         1.568162266340649    
    0.6253396219543805         1.567846844475194    
    0.6303423389300156         1.567333239888266    
    0.6353450559056506         1.566621491134894    
    0.6403477728812856         1.565711742392481    
    0.6453504898569207         1.564604242527970    
    0.6503532068325557         1.563299344094292    
    0.6553559238081907         1.561797502257579    
    0.6603586407838258         1.560099273656653    
    0.6653613577594608         1.558205315196376    
    0.6703640747350958         1.556116382776471    
    0.6753667917107310         1.553833329957529    
    0.6803695086863660         1.551357106565880    
    0.6853722256620011         1.548688757239148    
    0.6903749426376361         1.545829419914285    
    0.6953776596132711         1.542780324259946    
    0.7003803765889062         1.539542790055109    
    0.7053830935645412         1.536118225515863    
    0.7103858105401762         1.532508125572367    
    0.7153885275158113         1.528714070097936    
    0.7203912444914463         1.524737722092310    
    0.7253939614670813         1.520580825821168    
    0.7303966784427164         1.516245204913955    
    0.7353993954183514         1.511732760422130    
    0.7404021123939866         1.507045468839957    
    0.7454048293696216         1.502185380089971    
    0.7504075463452566         1.497154618022801    
    0.7554102633208917         1.491955380911687    
    0.7604129802965267         1.486589916224798    
    0.7654156972721617         1.481060546767036    
    0.7704184142477968         1.475369658300467    
    0.7754211312234318         1.469519697307516    
    0.7804238481990668         1.463513168789845    
    0.7854265651747019         1.457352634049267    
    0.7904292821503369         1.451040708452882    
    0.7954319991259720         1.444580059184563    
    0.8004347161016070         1.437973402984966    
    0.8054374330772421         1.431223503882166    
    0.8104401500528772         1.424333170915059    
    0.8154428670285122         1.417305255851600    
    0.8204455840041472         1.410142650903964    
    0.8254483009797823         1.402848286442674    
    0.8304510179554173         1.395425128711709    
    0.8354537349310523         1.387876177546614    
    0.8404564519066874         1.380204464097546    
    0.8454591688823224         1.372413048559213    
    0.8504618858579575         1.364505017909586    
    0.8554646028335925         1.356483483659265    
    0.8604673198092275         1.348351579613334    
    0.8654700367848627         1.340112459647453    
    0.8704727537604977         1.331769295499969    
    0.8754754707361327         1.323325274581746    
    0.8804781877117678         1.314783597805362    
    0.8854809046874028         1.306147477435305    
    0.8904836216630378         1.297420134960722    
    0.8954863386386729         1.288604798992254    
    0.9004890556143079         1.279704703184416    
    0.9054917725899430         1.270723084184969    
    0.9104944895655780         1.261663179612622    
    0.9154972065412130         1.252528226064426    
    0.9204999235168481         1.243321457154081    
    0.9255026404924831         1.234046101582394    
    0.9305053574681182         1.224705381241073    
    0.9355080744437533         1.215302509350901    
    0.9405107914193883         1.205840688635402    
    0.9455135083950233         1.196323109530939    
    0.9505162253706584         1.186752948434235    
    0.9555189423462934         1.177133365988153    
    0.9605216593219285         1.167467505406599    
    0.9655243762975635         1.157758490839289    
    0.9705270932731985         1.148009425777103    
    0.9755298102488336         1.138223391498706    
    0.9805325272244686         1.128403445558986    
    0.9855352442001036         1.118552620319921    
    0.9905379611757387         1.108673921524298    
    0.9955406781513738         1.098770326912764    
     1.000543395127009         1.088844784884586    
     1.005546112102644         1.078900213202405    
     1.010548829078279         1.068939497741342    
     1.015551546053914         1.058965491282571    
     1.020554263029549         1.048981012351618    
     1.025556980005184         1.038988844101417    
     1.030559696980819         1.028991733240268    
     1.035562413956454         1.018992389004695    
     1.040565130932089         1.008993482177120    
     1.045567847907724        0.9989976441483616    
     1.050570564883359        0.9890074660247399    
     1.055573281858994        0.9790254977796867    
     1.060575998834629        0.9690542474496093    
     1.065578715810264        0.9590961803737411    
     1.070581432785899        0.9491537184777539    
     1.075584149761534        0.9392292396007126    
     1.080586866737169        0.9293250768650171    
     1.085589583712804        0.9194435180889197    
     1.090592300688440        0.9095868052411390    
     1.095595017664075        0.8997571339371492    
     1.100597734639710        0.8899566529765651    
     1.105600451615345        0.8801874639210850    
     1.110603168590980        0.8704516207124086    
     1.115605885566615        0.8607511293295160    
     1.120608602542250        0.8510879474846814    
     1.125611319517885        0.8414639843575414    
     1.130614036493520        0.8318811003665311    
     1.135616753469155        0.8223411069769722    
     1.140619470444790        0.8128457665450914    
     1.145622187420425        0.8033967921971867    
     1.150624904396060        0.7939958477432034    
     1.155627621371695        0.7846445476238990    
     1.160630338347330        0.7753444568908229    
     1.165633055322965        0.7660970912182624    
     1.170635772298600        0.7569039169463733    
     1.175638489274235        0.7477663511545660    
     1.180641206249870        0.7386857617643718    
     1.185643923225505        0.7296634676709221    
     1.190646640201140        0.7207007389021288    
     1.195649357176775        0.7117987968047572    
     1.200652074152410        0.7029588142564951    
     1.205654791128046        0.6941819159030769    
     1.210657508103681        0.6854691784197170    
     1.215660225079316        0.6768216307958586    
     1.220662942054951        0.6682402546423921    
     1.225665659030586        0.6597259845205411    
     1.230668376006221        0.6512797082914387    
     1.235671092981856        0.6429022674855938    
     1.240673809957491        0.6345944576914325    
     1.245676526933126        0.6263570289619568    
     1.250679243908761        0.6181906862387286    
     1.255681960884396        0.6100960897924382    
     1.260684677860031        0.6020738556790757    
     1.265687394835666        0.5941245562109922    
     1.270690111811301        0.5862487204421171    
     1.275692828786936        0.5784468346663793    
     1.280695545762571        0.5707193429286738    
     1.285698262738206        0.5630666475476829    
     1.290700979713841        0.5554891096496438    
     1.295703696689476        0.5479870497124458    
     1.300706413665111        0.5405607481194173    
     1.305709130640746        0.5332104457219529    
     1.310711847616381        0.5259363444104121    
     1.315714564592017        0.5187386076926875    
     1.320717281567652        0.5116173612796938    
     1.325719998543287        0.5045726936772107    
     1.330722715518922        0.4976046567835512    
     1.335725432494557        0.4907132664924337    
     1.340728149470192        0.4838985033004370    
     1.345730866445827        0.4771603129186613    
     1.350733583421462        0.4704986068880098    
     1.355736300397097        0.4639132631975260    
     1.360739017372732        0.4574041269054540    
     1.365741734348367        0.4509710107625715    
     1.370744451324002        0.4446136958372129    
     1.375747168299637        0.4383319321417559    
     1.380749885275272        0.4321254392601660    
     1.385752602250907        0.4259939069761438    
     1.390755319226542        0.4199369959016275    
     1.395758036202177        0.4139543381053548    
     1.400760753177812        0.4080455377410905    
     1.405763470153447        0.4022101716749897    
     1.410766187129082        0.3964477900457795    
     1.415768904104717        0.3907579168538319    
     1.420771621080352        0.3851400508452489    
     1.425774338055988        0.3795936662853783    
     1.430777055031623        0.3741182139370375    
     1.435779772007258        0.3687131206606073    
     1.440782488982893        0.3633777891274762    
     1.445785205958528        0.3581115979727107    
     1.450787922934163        0.3529139035065154    
     1.455790639909798        0.3477840434775206    
     1.460793356885433        0.3427213409950364    
     1.465796073861068        0.3377251086960748    
     1.470798790836703        0.3327946530366766    
     1.475801507812338        0.3279292781327170    
     1.480804224787973        0.3231282893075934    
     1.485806941763608        0.3183909947941134    
     1.490809658739243        0.3137167054423530    
     1.495812375714878        0.3091047342556568    
     1.500815092690513        0.3045543954437138    
     1.505817809666148        0.3000650048348599    
     1.510820526641783        0.2956358803022346    
     1.515823243617418        0.2912663421615405    
     1.520825960593053        0.2869557134991151    
     1.525828677568688        0.2827033202438852    
     1.530831394544323        0.2785084913333445    
     1.535834111519959        0.2743705588908146    
     1.540836828495594        0.2702888583809213    
     1.545839545471229        0.2662627287646340    
     1.550842262446864        0.2622915126545020    
     1.555844979422499        0.2583745564059071    
     1.560847696398134        0.2545112102933281    
     1.565850413373769        0.2507008286247501    
     1.570853130349404        0.2469427698480210    
     1.575855847325039        0.2432363966342724    
     1.580858564300674        0.2395810760092712    
     1.585861281276309        0.2359761794013136    
     1.590863998251944        0.2324210828110657    
     1.595866715227579        0.2289151668592394    
     1.600869432203214        0.2254578168291170    
     1.605872149178849        0.2220484227699777    
     1.610874866154484        0.2186863795236293    
     1.615877583130119        0.2153710868175693    
     1.620880300105754        0.2121019493173024    
     1.625883017081389        0.2088783766804184    
     1.630885734057024        0.2056997835731624    
     1.635888451032659        0.2025655897377462    
     1.640891168008294        0.1994752200228473    
     1.645893884983930        0.1964281044126194    
     1.650896601959565        0.1934236780676744    
     1.655899318935200        0.1904613813377698    
     1.660902035910835        0.1875406597875733    
     1.665904752886470        0.1846609642159601    
     1.670907469862105        0.1818217506679890    
     1.675910186837740        0.1790224804503096    
     1.680912903813375        0.1762626201388659    
     1.685915620789010        0.1735416415847884    
     1.690918337764645        0.1708590219179094    
     1.695921054740280        0.1682142435470921    
     1.700923771715915        0.1656067941584778    
     1.705926488691550        0.1630361667112210    
     1.710929205667185        0.1605018594307790    
     1.715931922642820        0.1580033758002499    
     1.720934639618455        0.1555402245494385    
     1.725937356594090        0.1531119196419840    
     1.730940073569725        0.1507179802604784    
     1.735942790545360        0.1483579307899401    
     1.740945507520995        0.1460313007994529    
     1.745948224496630        0.1437376250221987    
     1.750950941472265        0.1414764433338418    
     1.755953658447901        0.1392473007295601    
     1.760956375423536        0.1370497472995943    
     1.765959092399171        0.1348833382034853    
     1.770961809374806        0.1327476336429857    
     1.775964526350441        0.1306421988338552    
     1.780967243326076        0.1285666039764948    
     1.785969960301711        0.1265204242255095    
     1.790972677277346        0.1245032396582457    
     1.795975394252981        0.1225146352423955    
     1.800978111228616        0.1205542008027191    
     1.805980828204251        0.1186215309869083    
     1.810983545179886        0.1167162252306714    
     1.815986262155521        0.1148378877220553    
     1.820988979131156        0.1129861273651315    
     1.825991696106791        0.1111605577430035    
     1.830994413082426        0.1093607970802210    
     1.835997130058061        0.1075864682046549    
     1.840999847033696        0.1058371985088371    
     1.846002564009331        0.1041126199108399    
     1.851005280984966        0.1024123688147164    
     1.856007997960601        0.1007360860705468    
     1.861010714936236        0.9908341693411879E-01
     1.866013431911872        0.9745401102627400E-01
     1.871016148887507        0.9584752229196150E-01
     1.876018865863142        0.9426360895902050E-01
     1.881021582838777        0.9270193349675809E-01
     1.886024299814412        0.9116216257426422E-01
     1.891027016790047        0.8964396701858310E-01
     1.896029733765682        0.8814702177271347E-01
     1.901032450741317        0.8667100585351557E-01
     1.906035167716952        0.8521560230947572E-01
     1.911037884692587        0.8378049817838930E-01
     1.916040601668222        0.8236538444499962E-01
     1.921043318643857        0.8096995599858474E-01
     1.926046035619492        0.7959391159058025E-01
     1.931048752595127        0.7823695379210953E-01
     1.936051469570762        0.7689878895159361E-01
     1.941054186546397        0.7557912715237373E-01
     1.946056903522032        0.7427768217042306E-01
     1.951059620497667        0.7299417143210660E-01
     1.956062337473302        0.7172831597199031E-01
     1.961065054448937        0.7047984039079250E-01
     1.966067771424572        0.6924847281341240E-01
     1.971070488400207        0.6803394484716933E-01
     1.976073205375842        0.6683599154006352E-01
     1.981075922351477        0.6565435133924258E-01
     1.986078639327113        0.6448876604962651E-01
     1.991081356302748        0.6333898079268713E-01
     1.996084073278383        0.6220474396548659E-01
     2.001086790254018        0.6108580719977142E-01
     2.006089507229653        0.5998192532135555E-01
     2.011092224205288        0.5889285630968300E-01
     2.016094941180923        0.5781836125762265E-01
     2.021097658156558        0.5675820433150688E-01
     2.026100375132193        0.5571215273131805E-01
     2.031103092107828        0.5467997665117898E-01
     2.036105809083463        0.5366144924005310E-01
     2.041108526059098        0.5265634656274105E-01
     2.046111243034733        0.5166444756108914E-01
     2.051113960010368        0.5068553401543646E-01
     2.056116676986003        0.4971939050636247E-01
     2.061119393961638        0.4876580437667073E-01
     2.066122110937273        0.4782456569370451E-01
     2.071124827912908        0.4689546721186722E-01
     2.076127544888543        0.4597830433543330E-01
     2.081130261864178        0.4507287508165786E-01
     2.086132978839813        0.4417898004414504E-01
     2.091135695815448        0.4329642235656122E-01
     2.096138412791083        0.4242500765655983E-01
     2.101141129766718        0.4156454405002180E-01
     2.106143846742353        0.4071484207559593E-01
     2.111146563717988        0.3987571466951082E-01
     2.116149280693624        0.3904697713073155E-01
     2.121151997669259        0.3822844708634530E-01
     2.126154714644894        0.3741994445726503E-01
     2.131157431620529        0.3662129142423500E-01
     2.136160148596164        0.3583231239411640E-01
     2.141162865571799        0.3505283396650752E-01
     2.146165582547434        0.3428268490061143E-01
     2.151168299523069        0.3352169608241361E-01
     2.156171016498704        0.3276970049216173E-01
     2.161173733474339        0.3202653317212928E-01
     2.166176450449974        0.3129203119469386E-01
     2.171179167425609        0.3056603363068811E-01
     2.176181884401244        0.2984838151803874E-01
     2.181184601376879        0.2913891783070773E-01
     2.186187318352514        0.2843748744791885E-01
     2.191190035328149        0.2774393712367401E-01
     2.196192752303785        0.2705811545656333E-01
     2.201195469279420        0.2637987285983925E-01
     2.206198186255055        0.2570906153179135E-01
     2.211200903230690        0.2504553542639807E-01
     2.216203620206325        0.2438915022425655E-01
     2.221206337181960        0.2373976330380182E-01
     2.226209054157595        0.2309723371278263E-01
     2.231211771133230        0.2246142214002544E-01
     2.236214488108865        0.2183219088746603E-01
     2.241217205084500        0.2120940384245044E-01
     2.246219922060135        0.2059292645030579E-01
     2.251222639035770        0.1998262568717282E-01
     2.256225356011405        0.1937837003310269E-01
     2.261228072987040        0.1878002944548717E-01
     2.266230789962675        0.1818747534652445E-01
     2.271233506938310        0.1760058095821256E-01
     2.276236223913945        0.1701922392340839E-01
     2.281238940889580        0.1644329452029806E-01
     2.286241657865215        0.1587270988178337E-01
     2.291244374840850        0.1530743033119058E-01
     2.296247091816485        0.1474747311040515E-01
     2.301249808792120        0.1419292074288329E-01
     2.306252525767755        0.1364392352115311E-01
     2.311255242743390        0.1310069698612958E-01
     2.316257959719025        0.1256351577813428E-01
     2.321260676694660        0.1203270522839927E-01
     2.326263393670295        0.1150863182060173E-01
     2.331266110645930        0.1099169335880156E-01
     2.336268827621566        0.1048230941169568E-01
     2.341271544597201        0.9980912390632259E-02
     2.346274261572836        0.9487939461900817E-02
     2.351276978548471        0.9003825384100694E-02
     2.356279695524106        0.8528996288208532E-02
     2.361282412499741        0.8063864371599238E-02
     2.366285129475376        0.7608823449630061E-02
     2.371287846451011        0.7164245293658360E-02
     2.376290563426646        0.6730476678028033E-02
     2.381293280402281        0.6307837057604342E-02
     2.386295997377916        0.5896616799728705E-02
     2.391298714353551        0.5497075898535018E-02
     2.396301431329186        0.5109443104406406E-02
     2.401304148304821        0.4733915406326927E-02
     2.406306865280456        0.4370657809451799E-02
     2.411309582256091        0.4019803353995605E-02
     2.416312299231726        0.3681453324173641E-02
     2.421315016207361        0.3355677596870007E-02
     2.426317733182996        0.3042515078335125E-02
     2.431320450158631        0.2741974172363491E-02
     2.436323167134267        0.2454033213191970E-02
     2.441325884109902        0.2178640777372568E-02
     2.446328601085537        0.1915715754873366E-02
     2.451331318061172        0.1665146998422504E-02
     2.456334035036807        0.1426792256912250E-02
     2.461336752012442        0.1200475879685253E-02
     2.466339468988077        0.9859843278859745E-03
     2.471342185963712        0.7830575229316316E-03
     2.476344902939347        0.5913715596888872E-03
     2.481347619914982        0.4105010911407106E-03
     2.486350336890617        0.2398237295336861E-03
     2.491353053866252        0.7818670525726291E-04
     2.496355770841887         0.000000000000000    
  0  6  1  0  1.000000   #orbital l, n, z, is_polarized, population
 500    0.1276120664783310E-01     6.367842117268714     # npts, delta, cutoff
     0.000000000000000        0.6038995622455614    
    0.1276120664783310E-01    0.6041646881057383    