<preamble>

<basis_specs>
===============================================================================
Au                   Z=  79    Mass=  196.97        Charge= 0.17977+309
Lmxo=2 Lmxkb= 3    BasisType=split      Semic=T
L=0  Nsemic=1  Cnfigmx=6
          i=1  nzeta=1  polorb=0  (5s)  (semicore shell)
            splnorm:   0.15000    
               vcte:    40.000    
               rinn:    2.5191    
               qcoe:    0.0000    
               qyuk:    0.0000    
               qwid:   0.10000E-01
                rcs:    2.7990    
            lambdas:    1.0000    
          i=2  nzeta=2  polorb=0  (6s)  (to be polarized non-perturbatively)
            splnorm:   0.15000    
               vcte:    40.000    
               rinn:    6.7947    
               qcoe:    0.0000    
               qyuk:    0.0000    
               qwid:   0.10000E-01
                rcs:    7.5497      4.8538    
            lambdas:    1.0000      1.0000    
L=1  Nsemic=1  Cnfigmx=6
          i=1  nzeta=1  polorb=0  (5p)  (semicore shell)
            splnorm:   0.15000    
               vcte:    40.000    
               rinn:    3.0147    
               qcoe:    0.0000    
               qyuk:    0.0000    
               qwid:   0.10000E-01
                rcs:    3.3463    
            lambdas:    1.0000    
          i=2  nzeta=1  polorb=0  (6p)  (non-perturbative polarization shell)
            splnorm:   0.15000    
               vcte:    40.000    
               rinn:    6.8015    
               qcoe:    0.0000    
               qyuk:   0.49407-323
               qwid:   0.44466-322
                rcs:    7.5497    
            lambdas:    1.0000    
L=2  Nsemic=0  Cnfigmx=5
          i=1  nzeta=2  polorb=0  (5d)
            splnorm:   0.15000    
               vcte:    40.000    
               rinn:    5.3376    
               qcoe:    0.0000    
               qyuk:    0.0000    
               qwid:   0.10000E-01
                rcs:    5.9248      3.4106    
            lambdas:    1.0000      1.0000    
-------------------------------------------------------------------------------
L=0  Nkbl=2  erefs: 0.17977+309 0.17977+309
L=1  Nkbl=2  erefs: 0.17977+309 0.17977+309
L=2  Nkbl=1  erefs: 0.17977+309
L=3  Nkbl=1  erefs: 0.17977+309
===============================================================================
</basis_specs>

<pseudopotential_header>
 Au pb nrl pcec
 ONCVPSP-3.2017-10-31Hamann's oncvpsp                        
 5s 2.00  r= 1.46/5p 6.00  r= 1.56/5d10.00  r= 1.56/5f 0.00  r= 1.60/   5s:5p:5d:6s:
</pseudopotential_header>
</preamble>
Au                            # Symbol
Au                            # Label
   79                         # Atomic number
     19.0000000000                             # Valence charge
     196.970000000        # Mass 
     373.212323315        # Self energy 
   2   7                      # Lmax for basis, no. of nl orbitals 
   3   7                      # Lmax for projectors, no. of nl KB projectors
# PAOs:__________________________
  0  5  1  0  2.000000   #orbital l, n, z, is_polarized, population
 500    0.5609225562899208E-02     2.799003555886705     # npts, delta, cutoff
     0.000000000000000        0.9606803551037231    
    0.5609225562899208E-02    0.9607748610897650    
    0.1121845112579842E-01    0.9611493147497839    
    0.1682767668869762E-01    0.9617730913331094    
    0.2243690225159683E-01    0.9626456541075326    
    0.2804612781449604E-01    0.9637662685650199    
    0.3365535337739525E-01    0.9651339940256488    
    0.3926457894029445E-01    0.9667476831732122    
    0.4487380450319366E-01    0.9686059827416152    
    0.5048303006609287E-01    0.9707073345977733    
    0.5609225562899208E-01    0.9730499770692066    
    0.6170148119189129E-01    0.9756319464739626    
    0.6731070675479049E-01    0.9784510788376990    
    0.7291993231768970E-01    0.9815050117910387    
    0.7852915788058891E-01    0.9847911866431338    
    0.8413838344348812E-01    0.9883068506284334    
    0.8974760900638733E-01    0.9920490593239976    
    0.9535683456928654E-01    0.9960146792347936    
    0.1009660601321857         1.000200390544376    
    0.1065752856950850         1.004602690028239    
    0.1121845112579842         1.009217894127054    
    0.1177937368208834         1.014042142176805    
    0.1234029623837826         1.019071399792770    
    0.1290121879466818         1.024301462404084    
    0.1346214135095810         1.029727958935526    
    0.1402306390724802         1.035346355633028    
    0.1458398646353794         1.041151960029212    
    0.1514490901982786         1.047139925045210    
    0.1570583157611778         1.053305253224811    
    0.1626675413240770         1.059642801096889    
    0.1682767668869762         1.066147283661942    
    0.1738859924498755         1.072813278998406    
    0.1794952180127747         1.079635232984350    
    0.1851044435756738         1.086607464129991    
    0.1907136691385731         1.093724168516366    
    0.1963228947014723         1.100979424835423    
    0.2019321202643715         1.108367199526634    
    0.2075413458272707         1.115881352005198    
    0.2131505713901699         1.123515639976729    
    0.2187597969530691         1.131263724833328    
    0.2243690225159683         1.139119177125766    
    0.2299782480788675         1.147075482106475    
    0.2355874736417667         1.155126045337967    
    0.2411966992046659         1.163264198361214    
    0.2468059247675652         1.171483204418455    
    0.2524151503304644         1.179776264224878    
    0.2580243758933636         1.188136521783511    
    0.2636336014562628         1.196557070237678    
    0.2692428270191620         1.205030957755256    
    0.2748520525820612         1.213551193439024    
    0.2804612781449604         1.222110753257277    
    0.2860705037078596         1.230702585988939    
    0.2916797292707588         1.239319619177318    
    0.2972889548336580         1.247954765086686    
    0.3028981803965572         1.256600926655852    
    0.3085074059594564         1.265251003442883    
    0.3141166315223556         1.273897897555160    
    0.3197258570852549         1.282534519558962    
    0.3253350826481541         1.291153794362770    
    0.3309443082110533         1.299748667068573    
    0.3365535337739525         1.308312108785435    
    0.3421627593368517         1.316837122399642    
    0.3477719848997509         1.325316748295817    
    0.3533812104626501         1.333744070023417    
    0.3589904360255493         1.342112219903115    
    0.3645996615884485         1.350414384567635    
    0.3702088871513477         1.358643810431644    
    0.3758181127142469         1.366793809085457    
    0.3814273382771461         1.374857762607350    
    0.3870365638400454         1.382829128789375    
    0.3926457894029445         1.390701446271683    
    0.3982550149658438         1.398468339580500    
    0.4038642405287430         1.406123524064933    
    0.4094734660916422         1.413660810727980    
    0.4150826916545414         1.421074110947221    
    0.4206919172174406         1.428357441080774    
    0.4263011427803398         1.435504926954275    
    0.4319103683432390         1.442510808224758    
    0.4375195939061382         1.449369442617452    
    0.4431288194690374         1.456075310031705    
    0.4487380450319366         1.462623016512352    
    0.4543472705948358         1.469007298083042    
    0.4599564961577350         1.475223024438193    
    0.4655657217206343         1.481265202490412    
    0.4711749472835335         1.487128979770395    
    0.4767841728464327         1.492809647676510    
    0.4823933984093319         1.498302644571426    
    0.4880026239722311         1.503603558723356    
    0.4936118495351303         1.508708131089676    
    0.4992210750980295         1.513612257940849    
    0.5048303006609287         1.518311993322776    
    0.5104395262238279         1.522803551355952    
    0.5160487517867272         1.527083308369901    
    0.5216579773496264         1.531147804871660    
    0.5272672029125256         1.534993747347219    
    0.5328764284754247         1.538618009895065    
    0.5384856540383239         1.542017635691149    
    0.5440948796012232         1.545189838284818    
    0.5497041051641224         1.548132002725464    
    0.5553133307270216         1.550841686519829    
    0.5609225562899208         1.553316620420081    
    0.5665317818528200         1.555554709043055    
    0.5721410074157192         1.557554031321193    
    0.5777502329786184         1.559312840785897    
    0.5833594585415176         1.560829565684278    
    0.5889686841044168         1.562102808930434    
    0.5945779096673161         1.563131347892569    
    0.6001871352302153         1.563914134017487    
    0.6057963607931145         1.564450292294172    
    0.6114055863560137         1.564739120558364    
    0.6170148119189128         1.564780088640152    
    0.6226240374818121         1.564572837356896    
    0.6282332630447113         1.564117177353879    
    0.6338424886076105         1.563413087795251    
    0.6394517141705097         1.562460714908070    
    0.6450609397334089         1.561260370382318    
    0.6506701652963082         1.559812529629992    
    0.6562793908592073         1.558117829906438    
    0.6618886164221065         1.556177068297352    
    0.6674978419850057         1.553991199574894    
    0.6731070675479049         1.551561333926568    
    0.6787162931108042         1.548888734560622    
    0.6843255186737034         1.545974815191830    
    0.6899347442366026         1.542821137411675    
    0.6955439697995018         1.539429407946969    
    0.7011531953624009         1.535801475811161    
    0.7067624209253002         1.531939329352583    
    0.7123716464881994         1.527845093204032    
    0.7179808720510986         1.523521025138100    
    0.7235900976139978         1.518969512832804    
    0.7291993231768971         1.514193070552104    
    0.7348085487397963         1.509194335745933    
    0.7404177743026954         1.503976065574444    
    0.7460269998655946         1.498541133361206    
    0.7516362254284938         1.492892528789876    
    0.7572454509913931         1.487033353721486    
    0.7628546765542923         1.480966796916206    
    0.7684639021171915         1.474696159624167    
    0.7740731276800907         1.468224840634402    
    0.7796823532429900         1.461556332395165    
    0.7852915788058891         1.454694217104433    
    0.7909008043687883         1.447642162767910    
    0.7965100299316875         1.440403919229305    
    0.8021192554945867         1.432983314177674    
    0.8077284810574860         1.425384249136543    
    0.8133377066203852         1.417610695439486    
    0.8189469321832844         1.409666690196836    
    0.8245561577461835         1.401556332258054    
    0.8301653833090827         1.393283778174323    
    0.8357746088719820         1.384853238165810    
    0.8413838344348812         1.376268972097964    
    0.8469930599977804         1.367535285471167    
    0.8526022855606796         1.358656525427950    
    0.8582115111235789         1.349637076781929    
    0.8638207366864781         1.340481358072460    
    0.8694299622493772         1.331193817648977    
    0.8750391878122764         1.321778929788831    
    0.8806484133751756         1.312241190852387    
    0.8862576389380749         1.302585115478976    
    0.8918668645009741         1.292815232827189    
    0.8974760900638733         1.282936082862943    
    0.9030853156267725         1.272952212698523    
    0.9086945411896716         1.262868172985783    
    0.9143037667525709         1.252688514366506    
    0.9199129923154701         1.242417783982778    
    0.9255222178783693         1.232060522050141    
    0.9311314434412685         1.221621258496162    
    0.9367406690041677         1.211104509666851    
    0.9423498945670670         1.200514775103303    
    0.9479591201299662         1.189856534390735    
    0.9535683456928653         1.179134244082025    
    0.9591775712557645         1.168352334697625    
    0.9647867968186637         1.157515207803689    
    0.9703960223815630         1.146627233169984    
    0.9760052479444622         1.135692746009185    
    0.9816144735073614         1.124716044298804    
    0.9872236990702606         1.113701386187099    
    0.9928329246331598         1.102652987483915    
    0.9984421501960590         1.091575019237544    
     1.004051375758958         1.080471605398295    
     1.009660601321857         1.069346820569551    
     1.015269826884757         1.058204687846805    
     1.020879052447656         1.047049176745095    
     1.026488278010555         1.035884201215131    
     1.032097503573454         1.024713617748273    
     1.037706729136354         1.013541223570441    
     1.043315954699253         1.002370754924809    
     1.048925180262152        0.9912058854431309    
     1.054534405825051        0.9800502246053480    
     1.060143631387950        0.9689073162870864    
     1.065752856950849        0.9577806373944384    
     1.071362082513749        0.9466735965855303    
     1.076971308076648        0.9355895330780121    
     1.082580533639547        0.9245317155416692    
     1.088189759202446        0.9135033410752041    
     1.093798984765346        0.9025075342661917    
     1.099408210328245        0.8915473463331232    
     1.105017435891144        0.8806257543482944    
     1.110626661454043        0.8697456605403144    
     1.116235887016942        0.8589098916748515    
     1.121845112579842        0.8481211985122508    
     1.127454338142741        0.8373822553405285    
     1.133063563705640        0.8266956595822003    
     1.138672789268539        0.8160639314733495    
     1.144282014831438        0.8054895138133102    
     1.149891240394338        0.7949747717832274    
     1.155500465957237        0.7845219928318027    
     1.161109691520136        0.7741333866264285    
     1.166718917083035        0.7638110850678896    
     1.172328142645934        0.7535571423668375    
     1.177937368208834        0.7433735351800479    
     1.183546593771733        0.7332621628046950    
     1.189155819334632        0.7232248474286641    
     1.194765044897531        0.7132633344349665    
     1.200374270460431        0.7033792927584003    
     1.205983496023330        0.6935743152923507    
     1.211592721586229        0.6838499193439537    
     1.217201947149128        0.6742075471355603    
     1.222811172712027        0.6646485663505468    
     1.228420398274926        0.6551742707216721    
     1.234029623837826        0.6457858806598366    
     1.239638849400725        0.6364845439215220    
     1.245248074963624        0.6272713363129380    
     1.250857300526523        0.6181472624289041    
     1.256466526089423        0.6091132564248140    
     1.262075751652322        0.6001701828196572    
     1.267684977215221        0.5913188373283883    
     1.273294202778120        0.5825599477219561    
     1.278903428341019        0.5738941747130084    
     1.284512653903919        0.5653221128658399    
     1.290121879466818        0.5568442915287917    
     1.295731105029717        0.5484611757874096    
     1.301340330592616        0.5401731674369771    
     1.306949556155516        0.5319806059726885    
     1.312558781718415        0.5238837695960303    
     1.318168007281314        0.5158828762360599    
     1.323777232844213        0.5079780845839137    
     1.329386458407112        0.5001694951393981    
     1.334995683970011        0.4924571512683864    
     1.340604909532911        0.4848410402695417    
     1.346214135095810        0.4773210944494103    
     1.351823360658709        0.4698971922046789    
     1.357432586221608        0.4625691591103545    
     1.363041811784508        0.4553367690130351    
     1.368651037347407        0.4481997451282041    
     1.374260262910306        0.4411577611404969    
     1.379869488473205        0.4342104423062835    
     1.385478714036104        0.4273573665575780    
     1.391087939599004        0.4205980656065353    
     1.396697165161903        0.4139320260499098    
     1.402306390724802        0.4073586904726398    
     1.407915616287701        0.4008774585400102    
     1.413524841850600        0.3944876879461348    
     1.419134067413500        0.3881886956863457    
     1.424743292976399        0.3819797595065103    
     1.430352518539298        0.3758601195210598    
     1.435961744102197        0.3698289782923915    
     1.441570969665096        0.3638855001297567    
     1.447180195227996        0.3580288114299719    
     1.452789420790895        0.3522580042129758    
     1.458398646353794        0.3465721428131707    
     1.464007871916693        0.3409702709999280    
     1.469617097479593        0.3354514195283527    
     1.475226323042492        0.3300146133593240    
     1.480835548605391        0.3246588780682093    
     1.486444774168290        0.3193832436433978    
     1.492053999731189        0.3141867442573002    
     1.497663225294088        0.3090684172735915    
     1.503272450856988        0.3040273020774985    
     1.508881676419887        0.2990624409386103    
     1.514490901982786        0.2941728796682168    
     1.520100127545685        0.2893576683382676    
     1.525709353108585        0.2846158615093686    
     1.531318578671484        0.2799465184883344    
     1.536927804234383        0.2753487036384565    
     1.542537029797282        0.2708214866588470    
     1.548146255360181        0.2663639428615371    
     1.553755480923081        0.2619751534050762    
     1.559364706485980        0.2576542055256174    
     1.564973932048879        0.2534001927881986    
     1.570583157611778        0.2492122152916924    
     1.576192383174677        0.2450893798094650    
     1.581801608737577        0.2410308000179705    
     1.587410834300476        0.2370355965963382    
     1.593020059863375        0.2331028975245202    
     1.598629285426274        0.2292318381119310    
     1.604238510989173        0.2254215611464803    
     1.609847736552073        0.2216712170126737    
     1.615456962114972        0.2179799637926806    
     1.621066187677871        0.2143469673960938    
     1.626675413240770        0.2107714016464421    
     1.632284638803670        0.2072524483286542    
     1.637893864366569        0.2037892972930515    
     1.643503089929468        0.2003811465091210    
     1.649112315492367        0.1970272021281065    
     1.654721541055266        0.1937266785308509    
     1.660330766618165        0.1904787983645843    
     1.665939992181065        0.1872827925817621    
     1.671549217743964        0.1841379004645707    
     1.677158443306863        0.1810433696513903    
     1.682767668869762        0.1779984561516722    
     1.688376894432662        0.1750024243564981    
     1.693986119995561        0.1720545470437768    
     1.699595345558460        0.1691541053781982    
     1.705204571121359        0.1663003889065720    
     1.710813796684258        0.1634926955482658    
     1.716423022247158        0.1607303315815134    
     1.722032247810057        0.1580126116253989    
     1.727641473372956        0.1553388586178946    
     1.733250698935855        0.1527084037900875    
     1.738859924498754        0.1501205866370241    
     1.744469150061654        0.1475747548851011    
     1.750078375624553        0.1450702644562424    
     1.755687601187452        0.1426064794291489    
     1.761296826750351        0.1401827719977437    
     1.766906052313250        0.1377985224269329    
     1.772515277876150        0.1354531190057991    
     1.778124503439049        0.1331459579985586    
     1.783733729001948        0.1308764435932612    
     1.789342954564847        0.1286439878484279    
     1.794952180127747        0.1264480106377248    
     1.800561405690646        0.1242879395928920    
     1.806170631253545        0.1221632100449510    
     1.811779856816444        0.1200732649638572    
     1.817389082379343        0.1180175548966696    
     1.822998307942242        0.1159955379044410    
     1.828607533505142        0.1140066794978208    
     1.834216759068041        0.1120504525715281    
     1.839825984630940        0.1101263373377787    
     1.845435210193839        0.1082338212587445    
     1.851044435756739        0.1063723989781457    
     1.856653661319638        0.1045415722520620    
     1.862262886882537        0.1027408498790307    
     1.867872112445436        0.1009697476295039    
     1.873481338008335        0.9922778817474702E-01
     1.879090563571235        0.9751450101526425E-01
     1.884699789134134        0.9582942240878015E-01
     1.890309014697033        0.9417209529784414E-01
     1.895918240259932        0.9254206923713980E-01
     1.901527465822831        0.9093890032057651E-01
     1.907136691385731        0.8936215110816106E-01
     1.912745916948630        0.8781139055270851E-01
     1.918355142511529        0.8628619392647967E-01
     1.923964368074428        0.8478614274779998E-01
     1.929573593637327        0.8331082470765928E-01
     1.935182819200227        0.8185983359631248E-01
     1.940792044763126        0.8043276922999841E-01
     1.946401270326025        0.7902923737779154E-01
     1.952010495888924        0.7764884968861595E-01
     1.957619721451824        0.7629122361837556E-01
     1.963228947014723        0.7495598235736559E-01
     1.968838172577622        0.7364275475792403E-01
     1.974447398140521        0.7235117526242116E-01
     1.980056623703421        0.7108088383143175E-01
     1.985665849266320        0.6983152587233050E-01
     1.991275074829219        0.6860275216820487E-01
     1.996884300392118        0.6739421880725842E-01
     2.002493525955017        0.6620558711243923E-01
     2.008102751517916        0.6503652357160361E-01
     2.013711977080816        0.6388669976807219E-01
     2.019321202643715        0.6275579231175017E-01
     2.024930428206614        0.6164348277057911E-01
     2.030539653769513        0.6054945760254631E-01
     2.036148879332413        0.5947340808818564E-01
     2.041758104895312        0.5841503026364232E-01
     2.047367330458211        0.5737402485423627E-01
     2.052976556021110        0.5635009720852240E-01
     2.058585781584009        0.5534295723295684E-01
     2.064195007146909        0.5435231932710027E-01
     2.069804232709808        0.5337790231947077E-01
     2.075413458272707        0.5241942940383248E-01
     2.081022683835606        0.5147662807616614E-01
     2.086631909398506        0.5054923007219120E-01
     2.092241134961405        0.4963697130556388E-01
     2.097850360524304        0.4873959180657778E-01
     2.103459586087203        0.4785683566150886E-01
     2.109068811650102        0.4698845095257764E-01
     2.114678037213001        0.4613418969852893E-01
     2.120287262775900        0.4529380779585984E-01
     2.125896488338800        0.4446706496058573E-01
     2.131505713901699        0.4365372467068998E-01
     2.137114939464598        0.4285355410916820E-01
     2.142724165027497        0.4206632410775538E-01
     2.148333390590397        0.4129180909119710E-01
     2.153942616153296        0.4052978702218182E-01
     2.159551841716195        0.3978003934689726E-01
     2.165161067279094        0.3904235094120591E-01
     2.170770292841993        0.3831651005747463E-01
     2.176379518404893        0.3760230827196235E-01
     2.181988743967792        0.3689954043287123E-01
     2.187597969530691        0.3620800460900016E-01
     2.193207195093590        0.3552750203903250E-01
     2.198816420656490        0.3485783708141597E-01
     2.204425646219389        0.3419881716485205E-01
     2.210034871782288        0.3355025273940049E-01
     2.215644097345187        0.3291195722818181E-01
     2.221253322908086        0.3228374697969657E-01
     2.226862548470986        0.3166544122071430E-01
     2.232471774033885        0.3105686200977147E-01
     2.238080999596784        0.3045783419125469E-01
     2.243690225159683        0.2986818535006753E-01
     2.249299450722583        0.2928774576688065E-01
     2.254908676285482        0.2871634837395199E-01
     2.260517901848381        0.2815382871152175E-01
     2.266127127411280        0.2760002488477322E-01
     2.271736352974179        0.2705477752135281E-01
     2.277345578537079        0.2651792972944630E-01
     2.282954804099977        0.2598932705641191E-01
     2.288564029662877        0.2546881744795433E-01
     2.294173255225776        0.2495625120784496E-01
     2.299782480788675        0.2445148095816569E-01
     2.305391706351574        0.2395436160009437E-01
     2.311000931914474        0.2346475027521640E-01
     2.316610157477373        0.2298250632734933E-01
     2.322219383040272        0.2250749126488829E-01
     2.327828608603171        0.2203956872364171E-01
     2.333437834166070        0.2157860443019049E-01
     2.339047059728970        0.2112446616573879E-01
     2.344656285291869        0.2067702373045152E-01
     2.350265510854768        0.2023614890828530E-01
     2.355874736417667        0.1980171543227625E-01
     2.361483961980567        0.1937359895032988E-01
     2.367093187543466        0.1895167699146918E-01
     2.372702413106365        0.1853582893254145E-01
     2.378311638669264        0.1812593596538934E-01
     2.383920864232163        0.1772188106445117E-01
     2.389530089795063        0.1732354895483235E-01
     2.395139315357962        0.1693082608080687E-01
     2.400748540920861        0.1654360057474875E-01
     2.406357766483760        0.1616176222649704E-01
     2.411966992046660        0.1578520245312636E-01
     2.417576217609559        0.1541381426915050E-01
     2.423185443172458        0.1504749225713456E-01
     2.428794668735357        0.1468613253870533E-01
     2.434403894298256        0.1432963274596437E-01
     2.440013119861156        0.1397789199328714E-01
     2.445622345424055        0.1363081084951226E-01
     2.451231570986954        0.1328829131052136E-01
     2.456840796549853        0.1295023677218508E-01
     2.462450022112752        0.1261655200368248E-01
     2.468059247675651        0.1228714312118488E-01
     2.473668473238551        0.1196191756189130E-01
     2.479277698801450        0.1164078405843440E-01
     2.484886924364349        0.1132365261362114E-01
     2.490496149927248        0.1101043447552078E-01
     2.496105375490147        0.1070104211289045E-01
     2.501714601053047        0.1039538919092640E-01
     2.507323826615946        0.1009339054735192E-01
     2.512933052178845        0.9794962168820141E-02
     2.518542277741744        0.9500021167634631E-02
     2.524151503304644        0.9208485758779901E-02
     2.529760728867543        0.8920275237256976E-02
     2.535369954430442        0.8635309955758161E-02
     2.540979179993341        0.8353511309735509E-02
     2.546588405556240        0.8074801901497392E-02
     2.552197631119140        0.7799106879304464E-02
     2.557806856682039        0.7526358144098996E-02
     2.563416082244938        0.7256501618538595E-02
     2.569025307807837        0.6989505566214238E-02
     2.574634533370737        0.6725367534134297E-02
     2.580243758933636        0.6464118514061735E-02
     2.585852984496535        0.6205824076799859E-02
     2.591462210059434        0.5950582939312687E-02
     2.597071435622333        0.5698523683498073E-02
     2.602680661185233        0.5449800335453087E-02
     2.608289886748132        0.5204587387843033E-02
     2.613899112311031        0.4963074695138947E-02
     2.619508337873930        0.4725462533277408E-02
     2.625117563436829        0.4491957005433981E-02
     2.630726788999728        0.4262765894670465E-02
     2.636336014562628        0.4038095007812708E-02
     2.641945240125527        0.3818145017392976E-02
     2.647554465688426        0.3603108784803151E-02
     2.653163691251325        0.3393169133822243E-02
     2.658772916814224        0.3188497036259228E-02
     2.664382142377124        0.2989250168416361E-02
     2.669991367940023        0.2795571796758225E-02
     2.675600593502922        0.2607589952525879E-02
     2.681209819065821        0.2425416857292320E-02
     2.686819044628721        0.2249148564127870E-02
     2.692428270191620        0.2078864781743038E-02
     2.698037495754519        0.1914628851537991E-02
     2.703646721317418        0.1756487849617590E-02
     2.709255946880317        0.1604472787425945E-02
     2.714865172443217        0.1458598885453135E-02
     2.720474398006116        0.1318865894161882E-02
     2.726083623569015        0.1185258434353861E-02
     2.731692849131914        0.1057746324793996E-02
     2.737302074694814        0.9362848564411860E-03
     2.742911300257713        0.8208149572398307E-03
     2.748520525820612        0.7112631634881287E-03
     2.754129751383511        0.6075412618787361E-03
     2.759738976946410        0.5095453655668042E-03
     2.765348202509310        0.4171539798268151E-03
     2.770957428072209        0.3302241480445905E-03
     2.776566653635108        0.2485836106838124E-03
     2.782175879198007        0.1720135625327776E-03
     2.787785104760906        0.1002047358638537E-03
     2.793394330323805        0.3260302310434532E-04
     2.799003555886705         0.000000000000000    
  0  6  1  0  1.000000   #orbital l, n, z, is_polarized, population
 500    0.1512963367245282E-01     7.549687202553957     # npts, delta, cutoff
     0.000000000000000        0.5932195372233984    
    0.1512963367245282E-01    0.5935932903440535    