Executable      : siesta
Version         : 5.2.2
Architecture    : x86_64
Compiler version: GNU-13.3.0
Compiler flags  : -march=nocona -mtune=haswell -ftree-vectorize -fPIC -fstack-protector-strong -fno-plt -O2 -ffunction-sections -pipe -isystem <prefix>/include -I<prefix>/_build_env/include -fdebug-prefix-map=<prefix>/work=/usr/local/src/conda/siesta-5.2.2 -fdebug-prefix-map=<prefix>=/usr/local/src/conda-prefix -I<prefix>/lib -fallow-argument-mismatch -O3
Parallelisations: none
NetCDF support
NetCDF-4 support
Lua support
DFT-D3 support

Runtime information:
* Directory : /mnt/c/Users/jfarr/SSN/ProjectSim/Au_particles/Au_10
* Running in serial mode.
>> Start of run:   1-JUL-2025  21:52:28

                           *********************** 
                           *  WELCOME TO SIESTA  * 
                           *********************** 

 NOTE: Siesta V5 introduces some new defaults for basis-set generation
 NOTE: which might lead to slightly different numerical results.
 NOTE: Please see the manual for full details and compatibility measures.


reinit: Reading from file optimization.fdf

reinit: -----------------------------------------------------------------------
reinit: System Name: 
reinit: -----------------------------------------------------------------------
reinit: System Label: AuRel
reinit: -----------------------------------------------------------------------

initatom: Reading input for the pseudopotentials and atomic orbitals ----------
Species number:   1 Atomic number:   79 Label: Au

Ground state valence configuration (from tables):   6s01  6p00  5d10  5f00

---- Processing specs for species: Au
Reading pseudopotential information in PSML from:
  Au.psml
PSML file version: 1.1
Using libxc ids:  101 130
GGA--PBE XC_GGA_X_PBE--XC_GGA_C_PBE pb
PSML uuid: fa497b30-be45-11e7-41fb-494093d7a025
Semicore shell(s) with  8 electrons included in the valence for Au

---- Pseudopotential check for Au

Pseudized shells:
5s( 2.00) rc: 1.46
5p( 6.00) rc: 1.56
5d(10.00) rc: 1.56
5f( 0.00) rc: 1.60
Valence configuration for ps generation: 5s:5p:5d:6s: Total charge:  19.000000
Semicore shell(s): 5s 5p
Fallback to non-perturbative polarization scheme for Au
Please see the manual if this is not desired in principle
For Au, standard SIESTA heuristics set lmxkb to 3
 (one more than the basis l, including polarization orbitals).
Use PS.lmax or PS.KBprojectors blocks to override.

<basis_specs>
===============================================================================
Au                   Z=  79    Mass=  196.97        Charge= 0.17977+309
Lmxo=2 Lmxkb= 3    BasisType=split      Semic=T
L=0  Nsemic=1  Cnfigmx=6
          i=1  nzeta=1  polorb=0  (5s)  (semicore shell)
            splnorm:   0.15000    
               vcte:    40.000    
               rinn:  -0.90000    
               qcoe:    0.0000    
               qyuk:    0.0000    
               qwid:   0.10000E-01
                rcs:    0.0000    
            lambdas:    1.0000    
          i=2  nzeta=2  polorb=0  (6s)  (to be polarized non-perturbatively)
            splnorm:   0.15000    
               vcte:    40.000    
               rinn:  -0.90000    
               qcoe:    0.0000    
               qyuk:    0.0000    
               qwid:   0.10000E-01
                rcs:    0.0000      0.0000    
            lambdas:    1.0000      1.0000    
L=1  Nsemic=1  Cnfigmx=6
          i=1  nzeta=1  polorb=0  (5p)  (semicore shell)
            splnorm:   0.15000    
               vcte:    40.000    
               rinn:  -0.90000    
               qcoe:    0.0000    
               qyuk:    0.0000    
               qwid:   0.10000E-01
                rcs:    0.0000    
            lambdas:    1.0000    
          i=2  nzeta=1  polorb=0  (6p)  (non-perturbative polarization shell)
            splnorm:   0.15000    
               vcte:    40.000    
               rinn:  -0.90000    
               qcoe:    0.0000    
               qyuk:   0.49407-323
               qwid:   0.44466-322
                rcs:    0.0000    
            lambdas:    1.0000    
L=2  Nsemic=0  Cnfigmx=5
          i=1  nzeta=2  polorb=0  (5d)
            splnorm:   0.15000    
               vcte:    40.000    
               rinn:  -0.90000    
               qcoe:    0.0000    
               qyuk:    0.0000    
               qwid:   0.10000E-01
                rcs:    0.0000      0.0000    
            lambdas:    1.0000      1.0000    
-------------------------------------------------------------------------------
L=0  Nkbl=2  erefs: 0.17977+309 0.17977+309
L=1  Nkbl=2  erefs: 0.17977+309 0.17977+309
L=2  Nkbl=1  erefs: 0.17977+309
L=3  Nkbl=1  erefs: 0.17977+309
===============================================================================
</basis_specs>

Using PAO.SplitTailNorm
atom: Called for Au                    (Z =  79)
Maximum radius (at nrval) set to   50.00000 8518

read_vps: Pseudopotential generation method:
read_vps: ONCVPSP-3.Hamann's oncvpsp                        
Valence charge in pseudo generation:   19.00000

read_vps: Pseudopotential includes a core correction:
read_vps: Pseudo-core for xc-correction

xc_check: Exchange-correlation functional:
xc_check: GGA Perdew, Burke & Ernzerhof 1996
Got Vlocal (oncv-fit) from psml data
Choosing vlocal chloc cutoff:  5.037181
qtot up to nchloc:   18.99999407
atom: Maximum radius for chlocal:    5.03718
atom: Maximum radius for r*vlocal+2*Zval:    5.03718
Reading KB projs from Au psml data
Using scalar-relativistic projectors in PSML file

PSML: Kleinman-Bylander projectors: 
   l= 0   rc=  1.474132   Ekb= 18.815768
   l= 0   rc=  1.474132   Ekb= -0.390506
   l= 1   rc=  1.583336   Ekb=  4.781134
   l= 1   rc=  1.583336   Ekb= -3.699696
   l= 2   rc=  1.583336   Ekb=  2.968821
   l= 2   rc=  1.583336   Ekb=  0.574456
   l= 3   rc=  1.622038   Ekb=  2.312314

PSML: Total number of  Kleinman-Bylander projectors:  25
atom: -------------------------------------------------------------------------

atom: SANKEY-TYPE ORBITALS:
atom: Selected multiple-zeta basis: split     

SPLIT: Orbitals with angular momentum L= 0

SPLIT: Basis orbitals for state 5s

SPLIT: PAO cut-off radius determined from an
SPLIT: energy shift=  0.000735 Ry
Split based on tail norm

   izeta = 1
                 lambda =    1.000000
                     rc =    2.925359
                 energy =   -7.964134
                kinetic =    2.893592
    potential(screened) =  -10.857725
       potential(ionic) =  -37.457701

SPLIT: Basis orbitals for state 6s

SPLIT: PAO cut-off radius determined from an
SPLIT: energy shift=  0.000735 Ry
Split based on tail norm

   izeta = 1
                 lambda =    1.000000
                     rc =    8.033223
                 energy =   -0.536485
                kinetic =    1.477051
    potential(screened) =   -2.013535
       potential(ionic) =  -17.521292

   izeta = 2
                 rmatch =    4.927355
              splitnorm =    0.150000
                 energy =   -0.413505
                kinetic =    2.478661
    potential(screened) =   -2.892166
       potential(ionic) =  -20.911581

SPLIT: Orbitals with angular momentum L= 1

SPLIT: Basis orbitals for state 5p

SPLIT: PAO cut-off radius determined from an
SPLIT: energy shift=  0.000735 Ry
Split based on tail norm

   izeta = 1
                 lambda =    1.000000
                     rc =    3.518348
                 energy =   -4.393065
                kinetic =    4.954761
    potential(screened) =   -9.347826
       potential(ionic) =  -34.716971

SPLIT: Basis orbitals for state 6p
SPLIT: Non-perturbative polarization orbs for state 6s
SPLIT: rc(1st zeta) (re)set to: 8.0332 (expansion factor: 1.0000)
Split based on tail norm

   izeta = 1
                 lambda =    1.000000
                     rc =    8.033223
                 energy =   -0.028561
                kinetic =    0.837945
    potential(screened) =   -0.866506
       potential(ionic) =  -11.902774

SPLIT: Orbitals with angular momentum L= 2

SPLIT: Basis orbitals for state 5d

SPLIT: PAO cut-off radius determined from an
SPLIT: energy shift=  0.000735 Ry
Split based on tail norm

   izeta = 1
                 lambda =    1.000000
                     rc =    6.393405
                 energy =   -0.504592
                kinetic =    4.935315
    potential(screened) =   -5.439906
       potential(ionic) =  -26.571989

   izeta = 2
                 rmatch =    3.462344
              splitnorm =    0.150000
                 energy =   -0.397189
                kinetic =    6.101362
    potential(screened) =   -6.498551
       potential(ionic) =  -29.253309
atom: Total number of Sankey-type orbitals: 19

atm_pop: Valence configuration (for local Pseudopot. screening):
 5s( 2.00) 6s( 1.00)                                                  
 5p( 6.00) 6p( 0.00)                                                  
 5d(10.00)                                                            
Vna: chval, zval:   19.00000  19.00000

Vna:  Cut-off radius for the neutral-atom potential:   8.033223
comcore: Pseudo-core radius Rcore=  2.583037

atom: _________________________________________________________________________

prinput: Basis input 

PAO.BasisType split     

%block ChemicalSpeciesLabel
    1   79 Au                      # Species index, atomic number, species label
%endblock ChemicalSpeciesLabel

%block PAO.Basis                 # Define Basis set
# WARNING: This information might be incomplete!
Au                    5                    # Species label, number of l-shells
 n=5   0   1                         # n, l, Nzeta 
   2.925   
   1.000   
 n=6   0   2                         # n, l, Nzeta 
   8.033      4.927   
   1.000      1.000   
 n=5   1   1                         # n, l, Nzeta 
   3.518   
   1.000   
 n=6   1   1                         # n, l, Nzeta 
   8.033   
   1.000   
 n=5   2   2                         # n, l, Nzeta 
   6.393      3.462   
   1.000      1.000   
%endblock PAO.Basis

prinput: ----------------------------------------------------------------------

Dumping basis to NetCDF file Au.ion.nc
coor:   Atomic-coordinates input format  =     Cartesian coordinates
coor:                                          (in Angstroms)

siesta: Atomic coordinates (Bohr) and species
siesta:      0.46382   0.26205   0.26205  1        1
siesta:      0.55115   4.22624   4.22624  1        2
siesta:      4.07415   0.22947   4.14540  1        3
siesta:      4.07415   4.14540   0.22946  1        4
siesta:      6.14288   6.97963   6.97963  1        5
siesta:      7.44455   0.18889   0.18889  1        6
siesta:      0.37813   7.54295   0.40729  1        7
siesta:      0.37814   0.40729   7.54295  1        8
siesta:      8.02583   3.81745   3.81745  1        9
siesta:      0.00000   3.94129   9.93416  1       10

siesta: System type = molecule  

initatomlists: Number of atoms, orbitals, and projectors:     10   190   250

coxmol: Writing XMOL coordinates into file AuRel.xyz                                                                                                                                                                                                                           

siesta: ******************** Simulation parameters ****************************
siesta:
siesta: The following are some of the parameters of the simulation.
siesta: A complete list of the parameters used, including default values,
siesta: can be found in file out.fdf
siesta:
redata: Spin configuration                          = none
redata: Number of spin components                   = 1
redata: Time-Reversal Symmetry                      = T
redata: Spin spiral                                 = F
redata: Long output                                 =   F
redata: Number of Atomic Species                    =        1
redata: Charge density info will appear in .RHO file
redata: Write Mulliken charges (when)               = none
redata: Write Mulliken Pop.                         = NO
redata: Write Hirshfeld charges (when)              = none
redata: Write Voronoi charges (when)                = none
redata: Write spin charge (when)                    = none
redata: Matel table size (NRTAB)                    =     1024
redata: Mesh Cutoff                                 =   300.0000 Ry
redata: Net charge of the system                    =     0.0000 |e|
redata: Min. number of SCF Iter                     =        0
redata: Max. number of SCF Iter                     =     1000
redata: SCF convergence failure will abort job
redata: SCF mix quantity                            = Hamiltonian
redata: Mix DM or H after convergence               =   F
redata: Recompute H after scf cycle                 =   F
redata: Mix DM in first SCF step                    =   T
redata: Write Pulay info on disk                    =   F
redata: New DM Occupancy tolerance                  = 0.000000000001
redata: No kicks to SCF
redata: DM Mixing Weight for Kicks                  =     0.5000
redata: Require Harris convergence for SCF          =   F
redata: Harris energy tolerance for SCF             =     0.000100 eV
redata: Require DM convergence for SCF              =   T
redata: DM tolerance for SCF                        =     0.000100
redata: Require EDM convergence for SCF             =   F
redata: EDM tolerance for SCF                       =     0.001000 eV
redata: Require H convergence for SCF               =   T
redata: Hamiltonian tolerance for SCF               =     0.001000 eV
redata: Require (free) Energy convergence for SCF   =   F
redata: (free) Energy tolerance for SCF             =     0.000100 eV
redata: Using DFT-D3 dispersion                     =   F
redata: Using Saved Data (generic)                  =   F
redata: Use continuation files for DM               =   T
redata: Neglect nonoverlap interactions             =   F
redata: Method of Calculation                       = Diagonalization
redata: Electronic Temperature                      =   290.1130 K
redata: Fix the spin of the system                  =   F
redata: Max. number of TDED Iter                    =        1
redata: Number of TDED substeps                     =        3
redata: Dynamics option                             = CG coord. optimization
redata: Variable cell                               =   F
redata: Use continuation files for CG               =   F
redata: Max atomic displ per move                   =     0.1058 Ang
redata: Maximum number of optimization moves        =       15
redata: Force tolerance                             =     0.0800 eV/Ang
mix.SCF: Pulay mixing                            = Pulay
mix.SCF:    Variant                              = stable
mix.SCF:    History steps                        = 2
mix.SCF:    Linear mixing weight                 =     0.250000
mix.SCF:    Mixing weight                        =     0.250000
mix.SCF:    SVD condition                        = 0.1000E-07
redata: Save all siesta data in one NC              =   F
redata: ***********************************************************************

%block SCF.Mixers
  Pulay
%endblock SCF.Mixers

%block SCF.Mixer.Pulay
  # Mixing method
  method pulay
  variant stable

  # Mixing options
  weight 0.2500
  weight.linear 0.2500
  history 2
%endblock SCF.Mixer.Pulay

DM_history_depth set to one: no extrapolation allowed by default for geometry relaxation
Size of DM history Fstack: 1
Total number of electrons:   190.000000
Total ionic charge:   190.000000

siesta: k-grid: Number of k-points = 1
siesta: k-point is Gamma-only

diag: Algorithm                                     = D&C
diag: Used triangular part                          = Lower
diag: Absolute tolerance                            =  0.100E-15
diag: Orthogonalization factor                      =  0.100E-05
diag: Memory factor                                 =  1.0000


ts: **************************************************************
ts: Save H and S matrices                           =    F
ts: Save DM and EDM matrices                        =    F
ts: Only save the overlap matrix S                  =    F
ts: **************************************************************

************************ Begin: TS CHECKS AND WARNINGS ************************
************************ End: TS CHECKS AND WARNINGS **************************


                     ====================================
                        Begin CG opt. move =      0
                     ====================================

outcell: Unit cell vectors (Ang):
       20.000000    0.000000    0.000000
        0.000000   20.000000    0.000000
        0.000000    0.000000   20.000000

outcell: Cell vector modules (Ang)   :   20.000000   20.000000   20.000000
outcell: Cell angles (23,13,12) (deg):     90.0000     90.0000     90.0000
outcell: Cell volume (Ang**3)        :   8000.0000
<dSpData1D:S at geom step 0
  <sparsity:sparsity for geom step 0
    nrows_g=190 nrows=190 sparsity=.8423 nnzs=30408, refcount: 7>
  <dData1D:(new from dSpData1D) n=30408, refcount: 1>
refcount: 1>
new_DM -- step:     1
Initializing Density Matrix...

Attempting to read DM from file... Failed...
DM filled with atomic data:
<dSpData2D:DM initialized from atoms
  <sparsity:sparsity for geom step 0
    nrows_g=190 nrows=190 sparsity=.8423 nnzs=30408, refcount: 8>
  <dData2D:DM n=30408 m=1, refcount: 1>
refcount: 1>
No. of atoms with KB's overlaping orbs in proc 0. Max # of overlaps:      10     117

InitMesh: MESH = 216 x 216 x 216 = 10077696
InitMesh: Mesh cutoff (required, used) =   300.000   322.366 Ry
New grid distribution [1]: sub = 2

stepf: Fermi-Dirac step function

siesta: Program's energy decomposition (eV):
siesta: Ebs     =     -7576.920888
siesta: Eions   =     50778.123407
siesta: Ena     =      5113.582426
siesta: Ekin    =     11229.529924
siesta: Enl     =       676.016469
siesta: Eso     =         0.000000
siesta: Edftu   =         0.000000
siesta: DEna    =       436.900524
siesta: DUscf   =        22.652253
siesta: DUext   =         0.000000
siesta: Ex      =     -6596.695071
siesta: Ec      =      -400.431350
siesta: Exc     =     -6997.126421
siesta: EbV     =         0.000000
siesta: eta*DQ  =         0.000000
siesta: Emadel  =         0.000000
siesta: Emeta   =         0.000000
siesta: Emolmec =         0.000000
siesta: Ekinion =         0.000000
siesta: Eharris =    -40258.396171
siesta: Etot    =    -40296.568233
siesta: FreeEng =    -40296.568490

        iscf     Eharris(eV)        E_KS(eV)     FreeEng(eV)     dDmax    Ef(eV) dHmax(eV)
   scf:    1   -40258.396171   -40296.568233   -40296.568490  1.738017 -3.270909 12.544734
timer: Routine,Calls,Time,% = IterSCF        1       6.355  29.41
   scf:    2   -40312.450418   -40307.581571   -40307.581572  1.039307 -4.359163  4.096057
   scf:    3   -40308.828828   -40308.580690   -40308.580693  0.396023 -4.548940  1.832087
   scf:    4   -40308.753287   -40308.735628   -40308.735631  0.240574 -4.627969  0.677110
   scf:    5   -40308.791196   -40308.771497   -40308.771501  0.064147 -4.664292  0.246605
   scf:    6   -40308.786837   -40308.780587   -40308.780591  0.026098 -4.695332  0.151237
   scf:    7   -40308.784118   -40308.782970   -40308.782974  0.016311 -4.716008  0.094829
   scf:    8   -40308.783574   -40308.783463   -40308.783466  0.012872 -4.726698  0.049727
   scf:    9   -40308.783709   -40308.783625   -40308.783628  0.005146 -4.732818  0.034127
   scf:   10   -40308.783751   -40308.783700   -40308.783704  0.003225 -4.739969  0.022523
   scf:   11   -40308.783745   -40308.783734   -40308.783738  0.002722 -4.746556  0.018705
   scf:   12   -40308.783741   -40308.783745   -40308.783749  0.002591 -4.749383  0.009817
   scf:   13   -40308.783749   -40308.783749   -40308.783753  0.001230 -4.750508  0.006916
   scf:   14   -40308.783751   -40308.783750   -40308.783754  0.000625 -4.751753  0.004369
   scf:   15   -40308.783751   -40308.783751   -40308.783755  0.000480 -4.753059  0.003789
   scf:   16   -40308.783751   -40308.783751   -40308.783755  0.000524 -4.753803  0.002057
   scf:   17   -40308.783751   -40308.783751   -40308.783755  0.000291 -4.754038  0.001489
   scf:   18   -40308.783751   -40308.783751   -40308.783755  0.000141 -4.754260  0.000862
   scf:   19   -40308.783751   -40308.783751   -40308.783755  0.000085 -4.754484  0.000747

SCF Convergence by DM+H criterion
max |DM_out - DM_in|         :     0.0000849911
max |H_out - H_in|      (eV) :     0.0007465873
SCF cycle converged after 19 iterations

Using DM_out to compute the final energy and forces
No. of atoms with KB's overlaping orbs in proc 0. Max # of overlaps:      10     117

siesta: E_KS(eV) =           -40308.7838

siesta: E_KS - E_eggbox =    -40308.7838

siesta: Atomic forces (eV/Ang):
----------------------------------------
   Tot   -0.001716   -0.000619   -0.000283
----------------------------------------
   Max    6.062882
   Res    1.864826    sqrt( Sum f_i^2 / 3N )
----------------------------------------
   Max    6.062882    constrained

Stress tensor Voigt[x,y,z,yz,xz,xy] (kbar):       -0.12       -2.29       -0.86       -1.40        0.66        0.45
(Free)E + p*V (eV/cell)   -40303.3483
Target enthalpy (eV/cell)   -40308.7838

                     ====================================
                        Begin CG opt. move =      1
                     ====================================

outcell: Unit cell vectors (Ang):
       20.000000    0.000000    0.000000
        0.000000   20.000000    0.000000
        0.000000    0.000000   20.000000

outcell: Cell vector modules (Ang)   :   20.000000   20.000000   20.000000
outcell: Cell angles (23,13,12) (deg):     90.0000     90.0000     90.0000
outcell: Cell volume (Ang**3)        :   8000.0000
<dSpData1D:S at geom step 1
  <sparsity:sparsity for geom step 1
    nrows_g=190 nrows=190 sparsity=.8360 nnzs=30180, refcount: 7>
  <dData1D:(new from dSpData1D) n=30180, refcount: 1>
refcount: 1>
new_DM -- step:     2
Re-using DM from previous geometries...
Number of DMs in history: 1
 DM extrapolation coefficients: 
1   1.00000
New DM after history re-use:
<dSpData2D:SpM extrapolated using coords
  <sparsity:sparsity for geom step 1
    nrows_g=190 nrows=190 sparsity=.8360 nnzs=30180, refcount: 9>
  <dData2D:(temp array for extrapolation) n=30180 m=1, refcount: 1>
refcount: 1>
No. of atoms with KB's overlaping orbs in proc 0. Max # of overlaps:      10     112

InitMesh: MESH = 216 x 216 x 216 = 10077696
InitMesh: Mesh cutoff (required, used) =   300.000   322.366 Ry
New grid distribution [1]: sub = 2

        iscf     Eharris(eV)        E_KS(eV)     FreeEng(eV)     dDmax    Ef(eV) dHmax(eV)
   scf:    1   -40309.230980   -40309.466375   -40309.466382  0.314133 -4.747216  0.459532
   scf:    2   -40308.312020   -40309.123187   -40309.123197  0.435095 -4.805606  2.506110
   scf:    3   -40309.558471   -40309.496253   -40309.496260  0.367460 -4.765761  0.091691
   scf:    4   -40309.497275   -40309.496852   -40309.496859  0.009602 -4.767096  0.066459
   scf:    5   -40309.497098   -40309.496992   -40309.496999  0.003288 -4.767317  0.021124
   scf:    6   -40309.497051   -40309.497026   -40309.497033  0.002469 -4.766905  0.018141
   scf:    7   -40309.497041   -40309.497034   -40309.497041  0.000526 -4.766711  0.009103
   scf:    8   -40309.497045   -40309.497040   -40309.497047  0.000623 -4.766414  0.007020
   scf:    9   -40309.497045   -40309.497043   -40309.497050  0.000463 -4.766144  0.002582
   scf:   10   -40309.497043   -40309.497043   -40309.497050  0.000291 -4.766060  0.002350
   scf:   11   -40309.497044   -40309.497043   -40309.497050  0.000091 -4.766013  0.001518
   scf:   12   -40309.497044   -40309.497043   -40309.497050  0.000059 -4.765950  0.001024
   scf:   13   -40309.497044   -40309.497044   -40309.497050  0.000073 -4.765894  0.000425

SCF Convergence by DM+H criterion
max |DM_out - DM_in|         :     0.0000726099
max |H_out - H_in|      (eV) :     0.0004249225
SCF cycle converged after 13 iterations

Using DM_out to compute the final energy and forces
No. of atoms with KB's overlaping orbs in proc 0. Max # of overlaps:      10     112

siesta: E_KS(eV) =           -40309.4970

siesta: Atomic forces (eV/Ang):
----------------------------------------
   Tot   -0.001000    0.000096    0.000004
----------------------------------------
   Max    2.434994
   Res    0.732641    sqrt( Sum f_i^2 / 3N )
----------------------------------------
   Max    2.434994    constrained

Stress tensor Voigt[x,y,z,yz,xz,xy] (kbar):       -0.16       -0.93       -0.16       -0.55        0.57        0.30
(Free)E + p*V (eV/cell)   -40307.4146
Target enthalpy (eV/cell)   -40309.4971

                     ====================================
                        Begin CG opt. move =      2
                     ====================================

outcell: Unit cell vectors (Ang):
       20.000000    0.000000    0.000000
        0.000000   20.000000    0.000000
        0.000000    0.000000   20.000000

outcell: Cell vector modules (Ang)   :   20.000000   20.000000   20.000000
outcell: Cell angles (23,13,12) (deg):     90.0000     90.0000     90.0000
outcell: Cell volume (Ang**3)        :   8000.0000
<dSpData1D:S at geom step 2
  <sparsity:sparsity for geom step 2
    nrows_g=190 nrows=190 sparsity=.8336 nnzs=30094, refcount: 7>
  <dData1D:(new from dSpData1D) n=30094, refcount: 1>
refcount: 1>
new_DM -- step:     3
Re-using DM from previous geometries...
Number of DMs in history: 1
 DM extrapolation coefficients: 
1   1.00000
New DM after history re-use:
<dSpData2D:SpM extrapolated using coords
  <sparsity:sparsity for geom step 2
    nrows_g=190 nrows=190 sparsity=.8336 nnzs=30094, refcount: 9>
  <dData2D:(temp array for extrapolation) n=30094 m=1, refcount: 1>
refcount: 1>
No. of atoms with KB's overlaping orbs in proc 0. Max # of overlaps:      10     109

InitMesh: MESH = 216 x 216 x 216 = 10077696
InitMesh: Mesh cutoff (required, used) =   300.000   322.366 Ry
New grid distribution [1]: sub = 2

        iscf     Eharris(eV)        E_KS(eV)     FreeEng(eV)     dDmax    Ef(eV) dHmax(eV)
   scf:    1   -40307.898507   -40309.510345   -40309.510355  0.743734 -4.767190  1.813105
   scf:    2   -40292.489683   -40304.259929   -40304.259932  1.650571 -4.754692 11.459182
   scf:    3   -40310.523577   -40309.723434   -40309.723449  1.441600 -4.776327  0.122571
   scf:    4   -40309.725697   -40309.725085   -40309.725103  0.016525 -4.778289  0.056118
   scf:    5   -40309.725360   -40309.725237   -40309.725256  0.002316 -4.777600  0.021662
   scf:    6   -40309.725344   -40309.725297   -40309.725316  0.002763 -4.776914  0.019609
   scf:    7   -40309.725324   -40309.725312   -40309.725331  0.000758 -4.776572  0.006599
   scf:    8   -40309.725323   -40309.725318   -40309.725337  0.000876 -4.776283  0.008280
   scf:    9   -40309.725323   -40309.725321   -40309.725340  0.000248 -4.776114  0.003871
   scf:   10   -40309.725324   -40309.725322   -40309.725342  0.000312 -4.775928  0.003845
   scf:   11   -40309.725323   -40309.725323   -40309.725342  0.000186 -4.775832  0.001475
   scf:   12   -40309.725323   -40309.725323   -40309.725342  0.000153 -4.775773  0.001784
   scf:   13   -40309.725323   -40309.725323   -40309.725343  0.000074 -4.775740  0.000900

SCF Convergence by DM+H criterion
max |DM_out - DM_in|         :     0.0000743342
max |H_out - H_in|      (eV) :     0.0009003697
SCF cycle converged after 13 iterations

Using DM_out to compute the final energy and forces
No. of atoms with KB's overlaping orbs in proc 0. Max # of overlaps:      10     109

siesta: E_KS(eV) =           -40309.7253

siesta: Atomic forces (eV/Ang):
----------------------------------------
   Tot   -0.000442    0.000302    0.000551
----------------------------------------
   Max    0.640783
   Res    0.298382    sqrt( Sum f_i^2 / 3N )
----------------------------------------
   Max    0.640783    constrained

Stress tensor Voigt[x,y,z,yz,xz,xy] (kbar):       -0.24        0.14        0.38        0.07        0.51        0.17
(Free)E + p*V (eV/cell)   -40310.2009
Target enthalpy (eV/cell)   -40309.7253

                     ====================================
                        Begin CG opt. move =      3
                     ====================================

outcell: Unit cell vectors (Ang):
       20.000000    0.000000    0.000000
        0.000000   20.000000    0.000000
        0.000000    0.000000   20.000000

outcell: Cell vector modules (Ang)   :   20.000000   20.000000   20.000000
outcell: Cell angles (23,13,12) (deg):     90.0000     90.0000     90.0000
outcell: Cell volume (Ang**3)        :   8000.0000
<dSpData1D:S at geom step 3
  <sparsity:sparsity for geom step 3
    nrows_g=190 nrows=190 sparsity=.8336 nnzs=30094, refcount: 7>
  <dData1D:(new from dSpData1D) n=30094, refcount: 1>
refcount: 1>
new_DM -- step:     4
Re-using DM from previous geometries...
Number of DMs in history: 1
 DM extrapolation coefficients: 
1   1.00000
New DM after history re-use:
<dSpData2D:SpM extrapolated using coords
  <sparsity:sparsity for geom step 3
    nrows_g=190 nrows=190 sparsity=.8336 nnzs=30094, refcount: 9>
  <dData2D:(temp array for extrapolation) n=30094 m=1, refcount: 1>
refcount: 1>
No. of atoms with KB's overlaping orbs in proc 0. Max # of overlaps:      10     109

InitMesh: MESH = 216 x 216 x 216 = 10077696
InitMesh: Mesh cutoff (required, used) =   300.000   322.366 Ry
New grid distribution [1]: sub = 2

        iscf     Eharris(eV)        E_KS(eV)     FreeEng(eV)     dDmax    Ef(eV) dHmax(eV)
   scf:    1   -40309.808916   -40309.728031   -40309.728049  0.070173 -4.775006  0.211135
   scf:    2   -40309.532767   -40309.667850   -40309.667862  0.183429 -4.777989  1.149603
   scf:    3   -40309.740796   -40309.730437   -40309.730454  0.151561 -4.774958  0.012542
   scf:    4   -40309.730446   -40309.730442   -40309.730460  0.000585 -4.774871  0.004871
   scf:    5   -40309.730445   -40309.730444   -40309.730461  0.000418 -4.774845  0.002807
   scf:    6   -40309.730444   -40309.730444   -40309.730462  0.000169 -4.774865  0.000675
   scf:    7   -40309.730444   -40309.730444   -40309.730462  0.000099 -4.774887  0.000872

SCF Convergence by DM+H criterion
max |DM_out - DM_in|         :     0.0000988693
max |H_out - H_in|      (eV) :     0.0008722675
SCF cycle converged after 7 iterations

Using DM_out to compute the final energy and forces
No. of atoms with KB's overlaping orbs in proc 0. Max # of overlaps:      10     109

siesta: E_KS(eV) =           -40309.7304

siesta: Atomic forces (eV/Ang):
----------------------------------------
   Tot   -0.000568    0.000047    0.000202
----------------------------------------
   Max    0.646992
   Res    0.280711    sqrt( Sum f_i^2 / 3N )
----------------------------------------
   Max    0.646992    constrained

Stress tensor Voigt[x,y,z,yz,xz,xy] (kbar):       -0.23        0.08        0.35        0.03        0.51        0.18
(Free)E + p*V (eV/cell)   -40310.0581
Target enthalpy (eV/cell)   -40309.7305

cgvc: Finished line minimization    1.  Mean atomic displacement =    0.1442

                     ====================================
                        Begin CG opt. move =      4
                     ====================================

outcell: Unit cell vectors (Ang):
       20.000000    0.000000    0.000000
        0.000000   20.000000    0.000000
        0.000000    0.000000   20.000000

outcell: Cell vector modules (Ang)   :   20.000000   20.000000   20.000000
outcell: Cell angles (23,13,12) (deg):     90.0000     90.0000     90.0000
outcell: Cell volume (Ang**3)        :   8000.0000
<dSpData1D:S at geom step 4
  <sparsity:sparsity for geom step 4
    nrows_g=190 nrows=190 sparsity=.8283 nnzs=29900, refcount: 7>
  <dData1D:(new from dSpData1D) n=29900, refcount: 1>
refcount: 1>
new_DM -- step:     5
Re-using DM from previous geometries...
Number of DMs in history: 1
 DM extrapolation coefficients: 
1   1.00000
New DM after history re-use:
<dSpData2D:SpM extrapolated using coords
  <sparsity:sparsity for geom step 4
    nrows_g=190 nrows=190 sparsity=.8283 nnzs=29900, refcount: 9>
  <dData2D:(temp array for extrapolation) n=29900 m=1, refcount: 1>
refcount: 1>
No. of atoms with KB's overlaping orbs in proc 0. Max # of overlaps:      10     104

InitMesh: MESH = 216 x 216 x 216 = 10077696
InitMesh: Mesh cutoff (required, used) =   300.000   322.366 Ry
New grid distribution [1]: sub = 2

        iscf     Eharris(eV)        E_KS(eV)     FreeEng(eV)     dDmax    Ef(eV) dHmax(eV)
   scf:    1   -40309.772329   -40309.894356   -40309.894358  0.147537 -4.723231  0.406295
   scf:    2   -40309.590649   -40309.811599   -40309.811602  0.102490 -4.751340  1.261544
   scf:    3   -40309.936728   -40309.910863   -40309.910865  0.071570 -4.731951  0.022084
   scf:    4   -40309.911216   -40309.911054   -40309.911056  0.001690 -4.732392  0.015231
   scf:    5   -40309.911202   -40309.911133   -40309.911136  0.001519 -4.732661  0.007378
   scf:    6   -40309.911184   -40309.911161   -40309.911163  0.000706 -4.732821  0.005319
   scf:    7   -40309.911167   -40309.911165   -40309.911167  0.000557 -4.732866  0.001897
   scf:    8   -40309.911167   -40309.911166   -40309.911168  0.000205 -4.732871  0.002049
   scf:    9   -40309.911167   -40309.911166   -40309.911169  0.000128 -4.732884  0.001020
   scf:   10   -40309.911167   -40309.911167   -40309.911169  0.000062 -4.732891  0.000772

SCF Convergence by DM+H criterion
max |DM_out - DM_in|         :     0.0000615690
max |H_out - H_in|      (eV) :     0.0007716040
SCF cycle converged after 10 iterations

Using DM_out to compute the final energy and forces
No. of atoms with KB's overlaping orbs in proc 0. Max # of overlaps:      10     104

siesta: E_KS(eV) =           -40309.9112

siesta: Atomic forces (eV/Ang):
----------------------------------------
   Tot   -0.000729    0.001147   -0.000510
----------------------------------------
   Max    0.593582
   Res    0.294969    sqrt( Sum f_i^2 / 3N )
----------------------------------------
   Max    0.593582    constrained

Stress tensor Voigt[x,y,z,yz,xz,xy] (kbar):        0.02        0.22        0.59       -0.00        0.10        0.04
(Free)E + p*V (eV/cell)   -40311.2892
Target enthalpy (eV/cell)   -40309.9112

                     ====================================
                        Begin CG opt. move =      5
                     ====================================

outcell: Unit cell vectors (Ang):
       20.000000    0.000000    0.000000
        0.000000   20.000000    0.000000
        0.000000    0.000000   20.000000

outcell: Cell vector modules (Ang)   :   20.000000   20.000000   20.000000
outcell: Cell angles (23,13,12) (deg):     90.0000     90.0000     90.0000
outcell: Cell volume (Ang**3)        :   8000.0000
<dSpData1D:S at geom step 5
  <sparsity:sparsity for geom step 5
    nrows_g=190 nrows=190 sparsity=.8335 nnzs=30088, refcount: 7>
  <dData1D:(new from dSpData1D) n=30088, refcount: 1>
refcount: 1>
new_DM -- step:     6
Re-using DM from previous geometries...
Number of DMs in history: 1
 DM extrapolation coefficients: 
1   1.00000
New DM after history re-use:
<dSpData2D:SpM extrapolated using coords
  <sparsity:sparsity for geom step 5
    nrows_g=190 nrows=190 sparsity=.8335 nnzs=30088, refcount: 9>
  <dData2D:(temp array for extrapolation) n=30088 m=1, refcount: 1>
refcount: 1>
No. of atoms with KB's overlaping orbs in proc 0. Max # of overlaps:      10     112

InitMesh: MESH = 216 x 216 x 216 = 10077696
InitMesh: Mesh cutoff (required, used) =   300.000   322.366 Ry
New grid distribution [1]: sub = 2

        iscf     Eharris(eV)        E_KS(eV)     FreeEng(eV)     dDmax    Ef(eV) dHmax(eV)
   scf:    1   -40309.640107   -40309.836267   -40309.836268  0.150371 -4.698681  0.493296
   scf:    2   -40309.466084   -40309.735097   -40309.735097  0.161448 -4.702759  1.463685
   scf:    3   -40309.887655   -40309.855795   -40309.855795  0.120511 -4.699625  0.018708
   scf:    4   -40309.856108   -40309.855964   -40309.855964  0.002502 -4.699524  0.015693
   scf:    5   -40309.856107   -40309.856041   -40309.856041  0.001110 -4.699445  0.007981
   scf:    6   -40309.856077   -40309.856060   -40309.856061  0.000990 -4.699535  0.002948
   scf:    7   -40309.856066   -40309.856063   -40309.856064  0.000207 -4.699578  0.002168
   scf:    8   -40309.856065   -40309.856064   -40309.856065  0.000121 -4.699603  0.000827
   scf:    9   -40309.856064   -40309.856064   -40309.856065  0.000055 -4.699607  0.000652

SCF Convergence by DM+H criterion
max |DM_out - DM_in|         :     0.0000545522
max |H_out - H_in|      (eV) :     0.0006517908
SCF cycle converged after 9 iterations

Using DM_out to compute the final energy and forces
No. of atoms with KB's overlaping orbs in proc 0. Max # of overlaps:      10     112

siesta: E_KS(eV) =           -40309.8561

siesta: Atomic forces (eV/Ang):
----------------------------------------
   Tot   -0.001405   -0.002279    0.001019
----------------------------------------
   Max    1.341769
   Res    0.482173    sqrt( Sum f_i^2 / 3N )
----------------------------------------
   Max    1.341769    constrained

Stress tensor Voigt[x,y,z,yz,xz,xy] (kbar):       -0.03        0.30        0.51        0.02       -0.12       -0.08
(Free)E + p*V (eV/cell)   -40311.1516
Target enthalpy (eV/cell)   -40309.8561

                     ====================================
                        Begin CG opt. move =      6
                     ====================================

outcell: Unit cell vectors (Ang):
       20.000000    0.000000    0.000000
        0.000000   20.000000    0.000000
        0.000000    0.000000   20.000000

outcell: Cell vector modules (Ang)   :   20.000000   20.000000   20.000000
outcell: Cell angles (23,13,12) (deg):     90.0000     90.0000     90.0000
outcell: Cell volume (Ang**3)        :   8000.0000
<dSpData1D:S at geom step 6
  <sparsity:sparsity for geom step 6
    nrows_g=190 nrows=190 sparsity=.8338 nnzs=30100, refcount: 7>
  <dData1D:(new from dSpData1D) n=30100, refcount: 1>
refcount: 1>
new_DM -- step:     7
Re-using DM from previous geometries...
Number of DMs in history: 1
 DM extrapolation coefficients: 
1   1.00000
New DM after history re-use:
<dSpData2D:SpM extrapolated using coords
  <sparsity:sparsity for geom step 6
    nrows_g=190 nrows=190 sparsity=.8338 nnzs=30100, refcount: 9>
  <dData2D:(temp array for extrapolation) n=30100 m=1, refcount: 1>
refcount: 1>
No. of atoms with KB's overlaping orbs in proc 0. Max # of overlaps:      10     112

InitMesh: MESH = 216 x 216 x 216 = 10077696
InitMesh: Mesh cutoff (required, used) =   300.000   322.366 Ry
New grid distribution [1]: sub = 2

        iscf     Eharris(eV)        E_KS(eV)     FreeEng(eV)     dDmax    Ef(eV) dHmax(eV)
   scf:    1   -40309.172924   -40309.899560   -40309.899562  0.139290 -4.725790  0.511022
   scf:    2   -40309.494721   -40309.783441   -40309.783443  0.226447 -4.719472  1.710751
   scf:    3   -40309.941319   -40309.914469   -40309.914471  0.176872 -4.725042  0.032462
   scf:    4   -40309.914786   -40309.914656   -40309.914658  0.005226 -4.724904  0.013676
   scf:    5   -40309.914745   -40309.914703   -40309.914705  0.000708 -4.724756  0.005915
   scf:    6   -40309.914747   -40309.914727   -40309.914728  0.001116 -4.724521  0.003814
   scf:    7   -40309.914735   -40309.914731   -40309.914733  0.000276 -4.724404  0.002333
   scf:    8   -40309.914733   -40309.914732   -40309.914733  0.000222 -4.724357  0.000982
   scf:    9   -40309.914732   -40309.914732   -40309.914734  0.000060 -4.724337  0.000841

SCF Convergence by DM+H criterion
max |DM_out - DM_in|         :     0.0000603612
max |H_out - H_in|      (eV) :     0.0008406146
SCF cycle converged after 9 iterations

Using DM_out to compute the final energy and forces
No. of atoms with KB's overlaping orbs in proc 0. Max # of overlaps:      10     112

siesta: E_KS(eV) =           -40309.9147

siesta: Atomic forces (eV/Ang):
----------------------------------------
   Tot   -0.001601   -0.000593   -0.001519
----------------------------------------
   Max    0.789500
   Res    0.340009    sqrt( Sum f_i^2 / 3N )
----------------------------------------
   Max    0.789500    constrained

Stress tensor Voigt[x,y,z,yz,xz,xy] (kbar):        0.03        0.25        0.60       -0.00        0.03        0.01
(Free)E + p*V (eV/cell)   -40311.3761
Target enthalpy (eV/cell)   -40309.9147

cgvc: Finished line minimization    2.  Mean atomic displacement =    0.1319

                     ====================================
                        Begin CG opt. move =      7
                     ====================================

outcell: Unit cell vectors (Ang):
       20.000000    0.000000    0.000000
        0.000000   20.000000    0.000000
        0.000000    0.000000   20.000000

outcell: Cell vector modules (Ang)   :   20.000000   20.000000   20.000000
outcell: Cell angles (23,13,12) (deg):     90.0000     90.0000     90.0000
outcell: Cell volume (Ang**3)        :   8000.0000
<dSpData1D:S at geom step 7
  <sparsity:sparsity for geom step 7
    nrows_g=190 nrows=190 sparsity=.8320 nnzs=30036, refcount: 7>
  <dData1D:(new from dSpData1D) n=30036, refcount: 1>
refcount: 1>
new_DM -- step:     8
Re-using DM from previous geometries...
Number of DMs in history: 1
 DM extrapolation coefficients: 
1   1.00000
New DM after history re-use:
<dSpData2D:SpM extrapolated using coords
  <sparsity:sparsity for geom step 7
    nrows_g=190 nrows=190 sparsity=.8320 nnzs=30036, refcount: 9>
  <dData2D:(temp array for extrapolation) n=30036 m=1, refcount: 1>
refcount: 1>
No. of atoms with KB's overlaping orbs in proc 0. Max # of overlaps:      10     110

InitMesh: MESH = 216 x 216 x 216 = 10077696
InitMesh: Mesh cutoff (required, used) =   300.000   322.366 Ry
New grid distribution [1]: sub = 2

        iscf     Eharris(eV)        E_KS(eV)     FreeEng(eV)     dDmax    Ef(eV) dHmax(eV)
   scf:    1   -40310.514393   -40310.071777   -40310.071778  0.299283 -4.708495  0.833818
   scf:    2   -40308.989790   -40309.752598   -40309.752599  0.266403 -4.705752  3.149493
   scf:    3   -40310.170145   -40310.100367   -40310.100367  0.202980 -4.706788  0.033772
   scf:    4   -40310.100754   -40310.100586   -40310.100586  0.003733 -4.706115  0.015840
   scf:    5   -40310.100713   -40310.100654   -40310.100654  0.001167 -4.705656  0.008332
   scf:    6   -40310.100699   -40310.100679   -40310.100679  0.001105 -4.705452  0.003640
   scf:    7   -40310.100686   -40310.100683   -40310.100683  0.000296 -4.705415  0.001949
   scf:    8   -40310.100684   -40310.100683   -40310.100684  0.000104 -4.705424  0.000850
   scf:    9   -40310.100684   -40310.100684   -40310.100684  0.000055 -4.705416  0.000518

SCF Convergence by DM+H criterion
max |DM_out - DM_in|         :     0.0000545047
max |H_out - H_in|      (eV) :     0.0005183718
SCF cycle converged after 9 iterations

Using DM_out to compute the final energy and forces
No. of atoms with KB's overlaping orbs in proc 0. Max # of overlaps:      10     110

siesta: E_KS(eV) =           -40310.1007

siesta: Atomic forces (eV/Ang):
----------------------------------------
   Tot    0.001585   -0.001217   -0.000840
----------------------------------------
   Max    0.549761
   Res    0.261398    sqrt( Sum f_i^2 / 3N )
----------------------------------------
   Max    0.549761    constrained

Stress tensor Voigt[x,y,z,yz,xz,xy] (kbar):        0.15        0.28        0.61        0.04       -0.13        0.10
(Free)E + p*V (eV/cell)   -40311.8378
Target enthalpy (eV/cell)   -40310.1007

                     ====================================
                        Begin CG opt. move =      8
                     ====================================

outcell: Unit cell vectors (Ang):
       20.000000    0.000000    0.000000
        0.000000   20.000000    0.000000
        0.000000    0.000000   20.000000

outcell: Cell vector modules (Ang)   :   20.000000   20.000000   20.000000
outcell: Cell angles (23,13,12) (deg):     90.0000     90.0000     90.0000
outcell: Cell volume (Ang**3)        :   8000.0000
<dSpData1D:S at geom step 8
  <sparsity:sparsity for geom step 8
    nrows_g=190 nrows=190 sparsity=.8470 nnzs=30578, refcount: 7>
  <dData1D:(new from dSpData1D) n=30578, refcount: 1>
refcount: 1>
new_DM -- step:     9
Re-using DM from previous geometries...
Number of DMs in history: 1
 DM extrapolation coefficients: 
1   1.00000
New DM after history re-use:
<dSpData2D:SpM extrapolated using coords
  <sparsity:sparsity for geom step 8
    nrows_g=190 nrows=190 sparsity=.8470 nnzs=30578, refcount: 9>
  <dData2D:(temp array for extrapolation) n=30578 m=1, refcount: 1>
refcount: 1>
No. of atoms with KB's overlaping orbs in proc 0. Max # of overlaps:      10     118

InitMesh: MESH = 216 x 216 x 216 = 10077696
InitMesh: Mesh cutoff (required, used) =   300.000   322.366 Ry
New grid distribution [1]: sub = 2

        iscf     Eharris(eV)        E_KS(eV)     FreeEng(eV)     dDmax    Ef(eV) dHmax(eV)
   scf:    1   -40310.360331   -40310.091946   -40310.091946  0.311267 -4.701366  0.966875
   scf:    2   -40308.688741   -40309.676842   -40309.676842  0.350747 -4.683987  3.601084
   scf:    3   -40310.216783   -40310.127672   -40310.127672  0.268369 -4.695041  0.043453
   scf:    4   -40310.128112   -40310.127922   -40310.127922  0.004859 -4.693868  0.020049
   scf:    5   -40310.128060   -40310.127997   -40310.127997  0.001580 -4.693136  0.007463
   scf:    6   -40310.128037   -40310.128019   -40310.128019  0.001269 -4.692898  0.003418
   scf:    7   -40310.128026   -40310.128022   -40310.128022  0.000254 -4.692915  0.001801
   scf:    8   -40310.128024   -40310.128023   -40310.128023  0.000138 -4.692918  0.000505
   scf:    9   -40310.128023   -40310.128023   -40310.128023  0.000061 -4.692929  0.000265

SCF Convergence by DM+H criterion
max |DM_out - DM_in|         :     0.0000609221
max |H_out - H_in|      (eV) :     0.0002654182
SCF cycle converged after 9 iterations

Using DM_out to compute the final energy and forces
No. of atoms with KB's overlaping orbs in proc 0. Max # of overlaps:      10     118

siesta: E_KS(eV) =           -40310.1280

siesta: Atomic forces (eV/Ang):
----------------------------------------
   Tot    0.000646    0.000991   -0.001036
----------------------------------------
   Max    0.957765
   Res    0.417883    sqrt( Sum f_i^2 / 3N )
----------------------------------------
   Max    0.957765    constrained

Stress tensor Voigt[x,y,z,yz,xz,xy] (kbar):        0.14        0.24        0.37        0.07       -0.22        0.21
(Free)E + p*V (eV/cell)   -40311.3798
Target enthalpy (eV/cell)   -40310.1280

                     ====================================
                        Begin CG opt. move =      9
                     ====================================

outcell: Unit cell vectors (Ang):
       20.000000    0.000000    0.000000
        0.000000   20.000000    0.000000
        0.000000    0.000000   20.000000

outcell: Cell vector modules (Ang)   :   20.000000   20.000000   20.000000
outcell: Cell angles (23,13,12) (deg):     90.0000     90.0000     90.0000
outcell: Cell volume (Ang**3)        :   8000.0000
<dSpData1D:S at geom step 9
  <sparsity:sparsity for geom step 9
    nrows_g=190 nrows=190 sparsity=.8409 nnzs=30358, refcount: 7>
  <dData1D:(new from dSpData1D) n=30358, refcount: 1>
refcount: 1>
new_DM -- step:    10
Re-using DM from previous geometries...
Number of DMs in history: 1
 DM extrapolation coefficients: 
1   1.00000
New DM after history re-use:
<dSpData2D:SpM extrapolated using coords
  <sparsity:sparsity for geom step 9
    nrows_g=190 nrows=190 sparsity=.8409 nnzs=30358, refcount: 9>
  <dData2D:(temp array for extrapolation) n=30358 m=1, refcount: 1>
refcount: 1>
No. of atoms with KB's overlaping orbs in proc 0. Max # of overlaps:      10     113

InitMesh: MESH = 216 x 216 x 216 = 10077696
InitMesh: Mesh cutoff (required, used) =   300.000   322.366 Ry
New grid distribution [1]: sub = 2

        iscf     Eharris(eV)        E_KS(eV)     FreeEng(eV)     dDmax    Ef(eV) dHmax(eV)
   scf:    1   -40309.775305   -40310.132832   -40310.132832  0.114683 -4.692256  0.412599
   scf:    2   -40309.886536   -40310.060111   -40310.060111  0.140048 -4.705189  1.443070
   scf:    3   -40310.155222   -40310.139200   -40310.139200  0.110120 -4.696485  0.013981
   scf:    4   -40310.139265   -40310.139236   -40310.139236  0.001390 -4.696865  0.007805
   scf:    5   -40310.139258   -40310.139248   -40310.139248  0.000610 -4.697014  0.002822
   scf:    6   -40310.139253   -40310.139251   -40310.139251  0.000433 -4.696991  0.001388
   scf:    7   -40310.139252   -40310.139251   -40310.139252  0.000105 -4.696962  0.000767
   scf:    8   -40310.139252   -40310.139252   -40310.139252  0.000053 -4.696940  0.000278

SCF Convergence by DM+H criterion
max |DM_out - DM_in|         :     0.0000529383
max |H_out - H_in|      (eV) :     0.0002779821
SCF cycle converged after 8 iterations

Using DM_out to compute the final energy and forces
No. of atoms with KB's overlaping orbs in proc 0. Max # of overlaps:      10     113

siesta: E_KS(eV) =           -40310.1393

siesta: Atomic forces (eV/Ang):
----------------------------------------
   Tot    0.000811    0.002070    0.000954
----------------------------------------
   Max    0.620566
   Res    0.334668    sqrt( Sum f_i^2 / 3N )
----------------------------------------
   Max    0.620566    constrained

Stress tensor Voigt[x,y,z,yz,xz,xy] (kbar):        0.16        0.26        0.50        0.06       -0.20        0.17
(Free)E + p*V (eV/cell)   -40311.6783
Target enthalpy (eV/cell)   -40310.1393

cgvc: Finished line minimization    3.  Mean atomic displacement =    0.1606

                     ====================================
                        Begin CG opt. move =     10
                     ====================================

outcell: Unit cell vectors (Ang):
       20.000000    0.000000    0.000000
        0.000000   20.000000    0.000000
        0.000000    0.000000   20.000000

outcell: Cell vector modules (Ang)   :   20.000000   20.000000   20.000000
outcell: Cell angles (23,13,12) (deg):     90.0000     90.0000     90.0000
outcell: Cell volume (Ang**3)        :   8000.0000
<dSpData1D:S at geom step 10
  <sparsity:sparsity for geom step 10
    nrows_g=190 nrows=190 sparsity=.8591 nnzs=31014, refcount: 7>
  <dData1D:(new from dSpData1D) n=31014, refcount: 1>
refcount: 1>
new_DM -- step:    11
Re-using DM from previous geometries...
Number of DMs in history: 1
 DM extrapolation coefficients: 
1   1.00000
New DM after history re-use:
<dSpData2D:SpM extrapolated using coords
  <sparsity:sparsity for geom step 10
    nrows_g=190 nrows=190 sparsity=.8591 nnzs=31014, refcount: 9>
  <dData2D:(temp array for extrapolation) n=31014 m=1, refcount: 1>
refcount: 1>
No. of atoms with KB's overlaping orbs in proc 0. Max # of overlaps:      10     121

InitMesh: MESH = 216 x 216 x 216 = 10077696
InitMesh: Mesh cutoff (required, used) =   300.000   322.366 Ry
New grid distribution [1]: sub = 2

        iscf     Eharris(eV)        E_KS(eV)     FreeEng(eV)     dDmax    Ef(eV) dHmax(eV)
   scf:    1   -40309.940786   -40310.360325   -40310.360325  0.139016 -4.682420  0.509999
   scf:    2   -40309.426862   -40310.086473   -40310.086473  0.241139 -4.637730  1.995771
   scf:    3   -40310.450316   -40310.386536   -40310.386536  0.192829 -4.673436  0.024863
   scf:    4   -40310.387012   -40310.386797   -40310.386798  0.002248 -4.673376  0.017188
   scf:    5   -40310.386976   -40310.386895   -40310.386895  0.001400 -4.673424  0.007196
   scf:    6   -40310.386940   -40310.386919   -40310.386919  0.000675 -4.673462  0.004229
   scf:    7   -40310.386930   -40310.386925   -40310.386925  0.000524 -4.673514  0.001875
   scf:    8   -40310.386927   -40310.386926   -40310.386926  0.000102 -4.673553  0.000838
   scf:    9   -40310.386926   -40310.386926   -40310.386926  0.000065 -4.673564  0.000435

SCF Convergence by DM+H criterion
max |DM_out - DM_in|         :     0.0000647235
max |H_out - H_in|      (eV) :     0.0004352160
SCF cycle converged after 9 iterations

Using DM_out to compute the final energy and forces
No. of atoms with KB's overlaping orbs in proc 0. Max # of overlaps:      10     121

siesta: E_KS(eV) =           -40310.3869

siesta: Atomic forces (eV/Ang):
----------------------------------------
   Tot    0.001465   -0.001035   -0.001197
----------------------------------------
   Max    0.558219
   Res    0.254686    sqrt( Sum f_i^2 / 3N )
----------------------------------------
   Max    0.558219    constrained

Stress tensor Voigt[x,y,z,yz,xz,xy] (kbar):        0.29        0.42        0.29        0.13       -0.18        0.19
(Free)E + p*V (eV/cell)   -40312.0420
Target enthalpy (eV/cell)   -40310.3869

                     ====================================
                        Begin CG opt. move =     11
                     ====================================

outcell: Unit cell vectors (Ang):
       20.000000    0.000000    0.000000
        0.000000   20.000000    0.000000
        0.000000    0.000000   20.000000

outcell: Cell vector modules (Ang)   :   20.000000   20.000000   20.000000
outcell: Cell angles (23,13,12) (deg):     90.0000     90.0000     90.0000
outcell: Cell volume (Ang**3)        :   8000.0000
<dSpData1D:S at geom step 11
  <sparsity:sparsity for geom step 11
    nrows_g=190 nrows=190 sparsity=.8665 nnzs=31280, refcount: 7>
  <dData1D:(new from dSpData1D) n=31280, refcount: 1>
refcount: 1>
new_DM -- step:    12
Re-using DM from previous geometries...
Number of DMs in history: 1
 DM extrapolation coefficients: 
1   1.00000
New DM after history re-use:
<dSpData2D:SpM extrapolated using coords
  <sparsity:sparsity for geom step 11
    nrows_g=190 nrows=190 sparsity=.8665 nnzs=31280, refcount: 9>
  <dData2D:(temp array for extrapolation) n=31280 m=1, refcount: 1>
refcount: 1>
No. of atoms with KB's overlaping orbs in proc 0. Max # of overlaps:      10     118

InitMesh: MESH = 216 x 216 x 216 = 10077696
InitMesh: Mesh cutoff (required, used) =   300.000   322.366 Ry
New grid distribution [1]: sub = 2

        iscf     Eharris(eV)        E_KS(eV)     FreeEng(eV)     dDmax    Ef(eV) dHmax(eV)
   scf:    1   -40309.936405   -40310.444188   -40310.444188  0.141197 -4.655721  0.501508
   scf:    2   -40309.655258   -40310.214828   -40310.214828  0.194176 -4.600723  1.848185
   scf:    3   -40310.524259   -40310.468831   -40310.468831  0.153245 -4.643620  0.018223
   scf:    4   -40310.469339   -40310.469108   -40310.469108  0.002546 -4.643307  0.012791
   scf:    5   -40310.469306   -40310.469216   -40310.469216  0.001784 -4.643354  0.006063
   scf:    6   -40310.469268   -40310.469244   -40310.469244  0.000659 -4.643508  0.004066
   scf:    7   -40310.469254   -40310.469249   -40310.469249  0.000517 -4.643653  0.001742
   scf:    8   -40310.469251   -40310.469250   -40310.469250  0.000107 -4.643710  0.000852
   scf:    9   -40310.469251   -40310.469250   -40310.469250  0.000053 -4.643724  0.000439

SCF Convergence by DM+H criterion
max |DM_out - DM_in|         :     0.0000529485
max |H_out - H_in|      (eV) :     0.0004391350
SCF cycle converged after 9 iterations

Using DM_out to compute the final energy and forces
No. of atoms with KB's overlaping orbs in proc 0. Max # of overlaps:      10     118

siesta: E_KS(eV) =           -40310.4693

siesta: Atomic forces (eV/Ang):
----------------------------------------
   Tot   -0.001110    0.002580   -0.000429
----------------------------------------
   Max    0.691383
   Res    0.333366    sqrt( Sum f_i^2 / 3N )
----------------------------------------
   Max    0.691383    constrained

Stress tensor Voigt[x,y,z,yz,xz,xy] (kbar):        0.31        0.46       -0.24        0.22       -0.18        0.19
(Free)E + p*V (eV/cell)   -40311.3405
Target enthalpy (eV/cell)   -40310.4693

                     ====================================
                        Begin CG opt. move =     12
                     ====================================

outcell: Unit cell vectors (Ang):
       20.000000    0.000000    0.000000
        0.000000   20.000000    0.000000
        0.000000    0.000000   20.000000

outcell: Cell vector modules (Ang)   :   20.000000   20.000000   20.000000
outcell: Cell angles (23,13,12) (deg):     90.0000     90.0000     90.0000
outcell: Cell volume (Ang**3)        :   8000.0000
<dSpData1D:S at geom step 12
  <sparsity:sparsity for geom step 12
    nrows_g=190 nrows=190 sparsity=.8647 nnzs=31214, refcount: 7>
  <dData1D:(new from dSpData1D) n=31214, refcount: 1>
refcount: 1>
new_DM -- step:    13
Re-using DM from previous geometries...
Number of DMs in history: 1
 DM extrapolation coefficients: 
1   1.00000
New DM after history re-use:
<dSpData2D:SpM extrapolated using coords
  <sparsity:sparsity for geom step 12
    nrows_g=190 nrows=190 sparsity=.8647 nnzs=31214, refcount: 9>
  <dData2D:(temp array for extrapolation) n=31214 m=1, refcount: 1>
refcount: 1>
No. of atoms with KB's overlaping orbs in proc 0. Max # of overlaps:      10     118

InitMesh: MESH = 216 x 216 x 216 = 10077696
InitMesh: Mesh cutoff (required, used) =   300.000   322.366 Ry
New grid distribution [1]: sub = 2

        iscf     Eharris(eV)        E_KS(eV)     FreeEng(eV)     dDmax    Ef(eV) dHmax(eV)
   scf:    1   -40310.438905   -40310.469744   -40310.469745  0.015931 -4.645021  0.049797
   scf:    2   -40310.463137   -40310.467842   -40310.467842  0.018352 -4.652110  0.160225
   scf:    3   -40310.470453   -40310.469972   -40310.469972  0.013746 -4.646897  0.002624
   scf:    4   -40310.469977   -40310.469975   -40310.469975  0.000234 -4.646950  0.001330
   scf:    5   -40310.469977   -40310.469976   -40310.469976  0.000238 -4.646939  0.000479
   scf:    6   -40310.469976   -40310.469976   -40310.469976  0.000059 -4.646909  0.000266

SCF Convergence by DM+H criterion
max |DM_out - DM_in|         :     0.0000592515
max |H_out - H_in|      (eV) :     0.0002658366
SCF cycle converged after 6 iterations

Using DM_out to compute the final energy and forces
No. of atoms with KB's overlaping orbs in proc 0. Max # of overlaps:      10     118

siesta: E_KS(eV) =           -40310.4700

siesta: Atomic forces (eV/Ang):
----------------------------------------
   Tot   -0.000922    0.002299   -0.000382
----------------------------------------
   Max    0.637198
   Res    0.319139    sqrt( Sum f_i^2 / 3N )
----------------------------------------
   Max    0.637198    constrained

Stress tensor Voigt[x,y,z,yz,xz,xy] (kbar):        0.31        0.46       -0.18        0.21       -0.17        0.19
(Free)E + p*V (eV/cell)   -40311.4595
Target enthalpy (eV/cell)   -40310.4700

cgvc: Finished line minimization    4.  Mean atomic displacement =    0.1446

                     ====================================
                        Begin CG opt. move =     13
                     ====================================

outcell: Unit cell vectors (Ang):
       20.000000    0.000000    0.000000
        0.000000   20.000000    0.000000
        0.000000    0.000000   20.000000

outcell: Cell vector modules (Ang)   :   20.000000   20.000000   20.000000
outcell: Cell angles (23,13,12) (deg):     90.0000     90.0000     90.0000
outcell: Cell volume (Ang**3)        :   8000.0000
<dSpData1D:S at geom step 13
  <sparsity:sparsity for geom step 13
    nrows_g=190 nrows=190 sparsity=.8708 nnzs=31436, refcount: 7>
  <dData1D:(new from dSpData1D) n=31436, refcount: 1>
refcount: 1>
new_DM -- step:    14
Re-using DM from previous geometries...
Number of DMs in history: 1
 DM extrapolation coefficients: 
1   1.00000
New DM after history re-use:
<dSpData2D:SpM extrapolated using coords
  <sparsity:sparsity for geom step 13
    nrows_g=190 nrows=190 sparsity=.8708 nnzs=31436, refcount: 9>
  <dData2D:(temp array for extrapolation) n=31436 m=1, refcount: 1>
refcount: 1>
No. of atoms with KB's overlaping orbs in proc 0. Max # of overlaps:      10     118

InitMesh: MESH = 216 x 216 x 216 = 10077696
InitMesh: Mesh cutoff (required, used) =   300.000   322.366 Ry
New grid distribution [1]: sub = 2

        iscf     Eharris(eV)        E_KS(eV)     FreeEng(eV)     dDmax    Ef(eV) dHmax(eV)
   scf:    1   -40309.710118   -40310.601185   -40310.601185  0.275295 -4.632967  0.773802
   scf:    2   -40309.491065   -40310.286989   -40310.286989  0.242670 -4.590618  2.751998
   scf:    3   -40310.729921   -40310.646238   -40310.646238  0.179480 -4.623646  0.056071
   scf:    4   -40310.646904   -40310.646635   -40310.646635  0.006050 -4.623659  0.024001
   scf:    5   -40310.646820   -40310.646734   -40310.646734  0.001909 -4.624079  0.012599
   scf:    6   -40310.646834   -40310.646787   -40310.646787  0.001623 -4.624570  0.007428
   scf:    7   -40310.646817   -40310.646803   -40310.646803  0.001082 -4.625109  0.001739
   scf:    8   -40310.646806   -40310.646805   -40310.646805  0.000230 -4.625274  0.000952
   scf:    9   -40310.646805   -40310.646805   -40310.646805  0.000054 -4.625289  0.000432

SCF Convergence by DM+H criterion
max |DM_out - DM_in|         :     0.0000535714
max |H_out - H_in|      (eV) :     0.0004316104
SCF cycle converged after 9 iterations

Using DM_out to compute the final energy and forces
No. of atoms with KB's overlaping orbs in proc 0. Max # of overlaps:      10     118

siesta: E_KS(eV) =           -40310.6468

siesta: Atomic forces (eV/Ang):
----------------------------------------
   Tot    0.000185    0.000828    0.000476
----------------------------------------
   Max    0.593849
   Res    0.208657    sqrt( Sum f_i^2 / 3N )
----------------------------------------
   Max    0.593849    constrained

Stress tensor Voigt[x,y,z,yz,xz,xy] (kbar):       -0.00        0.23       -0.42        0.10       -0.19        0.11
(Free)E + p*V (eV/cell)   -40310.3306
Target enthalpy (eV/cell)   -40310.6468

                     ====================================
                        Begin CG opt. move =     14
                     ====================================

outcell: Unit cell vectors (Ang):
       20.000000    0.000000    0.000000
        0.000000   20.000000    0.000000
        0.000000    0.000000   20.000000

outcell: Cell vector modules (Ang)   :   20.000000   20.000000   20.000000
outcell: Cell angles (23,13,12) (deg):     90.0000     90.0000     90.0000
outcell: Cell volume (Ang**3)        :   8000.0000
<dSpData1D:S at geom step 14
  <sparsity:sparsity for geom step 14
    nrows_g=190 nrows=190 sparsity=.8885 nnzs=32074, refcount: 7>
  <dData1D:(new from dSpData1D) n=32074, refcount: 1>
refcount: 1>
new_DM -- step:    15
Re-using DM from previous geometries...
Number of DMs in history: 1
 DM extrapolation coefficients: 
1   1.00000
New DM after history re-use:
<dSpData2D:SpM extrapolated using coords
  <sparsity:sparsity for geom step 14
    nrows_g=190 nrows=190 sparsity=.8885 nnzs=32074, refcount: 9>
  <dData2D:(temp array for extrapolation) n=32074 m=1, refcount: 1>
refcount: 1>
No. of atoms with KB's overlaping orbs in proc 0. Max # of overlaps:      10     134

InitMesh: MESH = 216 x 216 x 216 = 10077696
InitMesh: Mesh cutoff (required, used) =   300.000   322.366 Ry
New grid distribution [1]: sub = 2

        iscf     Eharris(eV)        E_KS(eV)     FreeEng(eV)     dDmax    Ef(eV) dHmax(eV)
   scf:    1   -40309.135777   -40310.447754   -40310.447754  0.264624 -4.633455  0.806912
   scf:    2   -40308.969743   -40310.021596   -40310.021596  0.245882 -4.541287  2.947721
   scf:    3   -40310.600751   -40310.498707   -40310.498707  0.185029 -4.611445  0.061075
   scf:    4   -40310.499605   -40310.499229   -40310.499229  0.005766 -4.610605  0.021449
   scf:    5   -40310.499482   -40310.499363   -40310.499363  0.001384 -4.610946  0.016031
   scf:    6   -40310.499485   -40310.499429   -40310.499429  0.001842 -4.611438  0.006220
   scf:    7   -40310.499453   -40310.499442   -40310.499442  0.000655 -4.611854  0.001865
   scf:    8   -40310.499445   -40310.499444   -40310.499444  0.000229 -4.611985  0.000964
   scf:    9   -40310.499444   -40310.499444   -40310.499444  0.000053 -4.611972  0.000462

SCF Convergence by DM+H criterion
max |DM_out - DM_in|         :     0.0000530920
max |H_out - H_in|      (eV) :     0.0004618994
SCF cycle converged after 9 iterations

Using DM_out to compute the final energy and forces
No. of atoms with KB's overlaping orbs in proc 0. Max # of overlaps:      10     134

siesta: E_KS(eV) =           -40310.4994

siesta: Atomic forces (eV/Ang):
----------------------------------------
   Tot    0.001387    0.000170    0.000041
----------------------------------------
   Max    1.015971
   Res    0.460310    sqrt( Sum f_i^2 / 3N )
----------------------------------------
   Max    1.015971    constrained

Stress tensor Voigt[x,y,z,yz,xz,xy] (kbar):       -0.78       -0.11       -0.91       -0.11       -0.40       -0.11
(Free)E + p*V (eV/cell)   -40307.5020
Target enthalpy (eV/cell)   -40310.4994

                     ====================================
                        Begin CG opt. move =     15
                     ====================================

outcell: Unit cell vectors (Ang):
       20.000000    0.000000    0.000000
        0.000000   20.000000    0.000000
        0.000000    0.000000   20.000000

outcell: Cell vector modules (Ang)   :   20.000000   20.000000   20.000000
outcell: Cell angles (23,13,12) (deg):     90.0000     90.0000     90.0000
outcell: Cell volume (Ang**3)        :   8000.0000
<dSpData1D:S at geom step 15
  <sparsity:sparsity for geom step 15
    nrows_g=190 nrows=190 sparsity=.8736 nnzs=31538, refcount: 7>
  <dData1D:(new from dSpData1D) n=31538, refcount: 1>
refcount: 1>
new_DM -- step:    16
Re-using DM from previous geometries...
Number of DMs in history: 1
 DM extrapolation coefficients: 
1   1.00000
New DM after history re-use:
<dSpData2D:SpM extrapolated using coords
  <sparsity:sparsity for geom step 15
    nrows_g=190 nrows=190 sparsity=.8736 nnzs=31538, refcount: 9>
  <dData2D:(temp array for extrapolation) n=31538 m=1, refcount: 1>
refcount: 1>
No. of atoms with KB's overlaping orbs in proc 0. Max # of overlaps:      10     121

InitMesh: MESH = 216 x 216 x 216 = 10077696
InitMesh: Mesh cutoff (required, used) =   300.000   322.366 Ry
New grid distribution [1]: sub = 2

        iscf     Eharris(eV)        E_KS(eV)     FreeEng(eV)     dDmax    Ef(eV) dHmax(eV)
   scf:    1   -40310.304820   -40310.603625   -40310.603625  0.258358 -4.597449  0.885911
   scf:    2   -40309.439178   -40310.274178   -40310.274178  0.164994 -4.702672  2.805116
   scf:    3   -40310.741356   -40310.650750   -40310.650750  0.123395 -4.626090  0.030851
   scf:    4   -40310.651367   -40310.651088   -40310.651088  0.003327 -4.625680  0.023293
   scf:    5   -40310.651322   -40310.651215   -40310.651215  0.002039 -4.624830  0.009901
   scf:    6   -40310.651278   -40310.651250   -40310.651250  0.001400 -4.623900  0.003079
   scf:    7   -40310.651257   -40310.651254   -40310.651254  0.000454 -4.623424  0.001315
   scf:    8   -40310.651255   -40310.651254   -40310.651254  0.000075 -4.623243  0.000775

SCF Convergence by DM+H criterion
max |DM_out - DM_in|         :     0.0000751429
max |H_out - H_in|      (eV) :     0.0007745425
SCF cycle converged after 8 iterations

Using DM_out to compute the final energy and forces
No. of atoms with KB's overlaping orbs in proc 0. Max # of overlaps:      10     121

siesta: E_KS(eV) =           -40310.6513

siesta: Atomic forces (eV/Ang):
----------------------------------------
   Tot    0.000265    0.001365    0.001471
----------------------------------------
   Max    0.600935
   Res    0.209300    sqrt( Sum f_i^2 / 3N )
----------------------------------------
   Max    0.600935    constrained

Stress tensor Voigt[x,y,z,yz,xz,xy] (kbar):       -0.06        0.20       -0.46        0.08       -0.21        0.09
(Free)E + p*V (eV/cell)   -40310.1028
Target enthalpy (eV/cell)   -40310.6513

cgvc: Finished line minimization    5.  Mean atomic displacement =    0.1245

outcoor: Final (unrelaxed) atomic coordinates (Ang):        
    0.06171710    0.34331647    0.77835878   1       1  Au
    0.55196120    2.42391110    2.48542106   1       2  Au
    2.36498195   -0.12163106    2.18001376   1       3  Au
    2.26626109    2.14827642    0.13285191   1       4  Au
    2.82073893    3.41672543    3.59035215   1       5  Au
    4.20927079    0.30766096   -0.22098089   1       6  Au
    0.19135149    3.84697225    0.35086022   1       7  Au
    0.09375517    0.00596781    3.68383878   1       8  Au
    4.24550118    1.92664302    1.96259797   1       9  Au
   -0.11994861    2.49913445    5.02424415   1      10  Au

coxmol: Writing XMOL coordinates into file AuRel.xyz                                                                                                                                                                                                                           

siesta: Program's energy decomposition (eV):
siesta: Ebs     =     -6695.259258
siesta: Eions   =     50778.123407
siesta: Ena     =      5115.087741
siesta: Ekin    =     11581.612206
siesta: Enl     =       683.736818
siesta: Eso     =         0.000000
siesta: Edftu   =         0.000000
siesta: DEna    =       158.615024
siesta: DUscf   =         3.706779
siesta: DUext   =         0.000000
siesta: Ex      =     -6672.346650
siesta: Ec      =      -402.939766
siesta: Exc     =     -7075.286416
siesta: EbV     =         0.000000
siesta: eta*DQ  =         0.000000
siesta: Emadel  =         0.000000
siesta: Emeta   =         0.000000
siesta: Emolmec =         0.000000
siesta: Ekinion =         0.000000
siesta: Eharris =    -40310.651255
siesta: Etot    =    -40310.651254
siesta: FreeEng =    -40310.651254

siesta: Final energy (eV):
siesta:  Band Struct. =   -6695.259258
siesta:       Kinetic =   11581.612206
siesta:       Hartree =   61247.920650
siesta:         Edftu =       0.000000
siesta:       Eso     =       0.000000
siesta:    Ext. field =       0.000000
siesta:         Exch. =   -6672.346650
siesta:         Corr. =    -402.939766
siesta:     Bulk bias =       0.000000
siesta:   Exch.-corr. =   -7075.286416
siesta:  Ion-electron = -135705.321103
siesta:       Ion-ion =   29640.423408
siesta:       Ekinion =       0.000000
siesta: D3 dispersion =       0.000000
siesta:         Total =  -40310.651254
siesta:         Fermi =      -4.623243

siesta: Atomic forces (eV/Ang):
siesta:      1   -0.040753   -0.049016   -0.009128
siesta:      2    0.151703   -0.083820    0.195679
siesta:      3    0.193317    0.153948   -0.186028
siesta:      4   -0.519653   -0.040295   -0.116464
siesta:      5   -0.021078   -0.140752    0.183861
siesta:      6   -0.009238   -0.062292   -0.038361
siesta:      7    0.010769    0.142400   -0.600935
siesta:      8    0.027887    0.375598    0.069894
siesta:      9    0.243028   -0.023216    0.329461
siesta:     10   -0.035717   -0.271191    0.173493
siesta: ----------------------------------------
siesta:    Tot    0.000265    0.001365    0.001471

siesta: Stress tensor (static) (eV/Ang**3):
siesta:    -0.000040    0.000055   -0.000128
siesta:     0.000055    0.000123    0.000048
siesta:    -0.000128    0.000048   -0.000288

siesta: Cell volume =       8000.000000 Ang**3

siesta: Pressure (static):
siesta:                Solid            Molecule  Units
siesta:           0.00000075          0.00000002  Ry/Bohr**3
siesta:           0.00006856          0.00000225  eV/Ang**3
siesta:           0.10983930          0.00360120  kBar
(Free)E+ p_basis*V_orbitals  =      -40298.812729
(Free)Eharris+ p_basis*V_orbitals  =      -40298.812730

siesta: Electric dipole (a.u.)  =   -0.344332   -0.223572   -0.410478
siesta: Electric dipole (Debye) =   -0.875204   -0.568264   -1.043330

cite: Please indicate the Siesta version in published work: 5.2.2
cite: This calculation has made use of features in the following articles
cite: which we encourage you to cite in published work.
cite: (Please see "AuRel.bib" for a BibTeX file.)
        Primary SIESTA paper
          DOI: www.doi.org/10.1088/0953-8984/14/11/302
        PSML pseudopotential format
          DOI: www.doi.org/10.1016/j.cpc.2018.02.011


timer: Elapsed wall time (sec) =    1228.256
timer: CPU execution times (sec):

Routine            Calls   Time/call    Tot.time        %
siesta                 1    1263.238    1263.238   100.00
Setup                  1       0.161       0.161     0.01
bands                  1       0.000       0.000     0.00
KSV_init               1       0.000       0.000     0.00
IterGeom              16      78.941    1263.063    99.99
geom_init             16      12.024     192.384    15.23
state_init            16       0.045       0.722     0.06
hsparse               16       0.002       0.035     0.00
overlap               16       0.040       0.637     0.05
Setup_H0              16       6.119      97.907     7.75
naefs                 32       0.000       0.003     0.00
dnaefs                32       0.000       0.002     0.00
MolMec                32       0.000       0.000     0.00
kinefsm               32       0.029       0.920     0.07
nlefsm                32       0.092       2.958     0.23
DHSCF_Init            16       5.955      95.274     7.54
DHSCF1                16       0.161       2.568     0.20
InitMesh              16       0.160       2.567     0.20
INITMESH              16       0.000       0.000     0.00
DHSCF2                16       5.794      92.706     7.34
REMESH                16       0.379       6.058     0.48
REORD                616       0.027      16.587     1.31
PHION                 16       3.370      53.913     4.27
COMM_BSC             800       0.024      18.857     1.49
POISON               204       1.382     281.940    22.32
fft                  408       0.551     224.859    17.80
setup_H              172       5.730     985.561    78.02
DHSCF                188       6.147    1155.650    91.48
DHSCF3               188       5.715    1074.378    85.05
rhoofd               188       0.957     179.868    14.24
XC                   188       2.319     435.904    34.51
GXC-CellXC           188       2.207     414.850    32.84
gridxc@cellXC        188       2.207     414.846    32.84
vmat                 188       0.661     124.325     9.84
IterSCF              156       5.760     898.628    71.14
compute_dm           156       0.042       6.591     0.52
diagon               156       0.042       6.560     0.52
r-eigvec             156       0.023       3.511     0.28
r-buildHS            156       0.000       0.042     0.00
rdiag                156       0.022       3.469     0.27
rdiag1               156       0.001       0.123     0.01
rdiag2               156       0.002       0.355     0.03
rdiag3               156       0.014       2.126     0.17
rdiag4               156       0.005       0.842     0.07
r-buildD             156       0.019       3.008     0.24
MIXER                140       0.000       0.063     0.00
PostSCF               16      10.748     171.961    13.61
FINAL_HF              16      10.748     171.960    13.61
DHSCF4                16       5.079      81.272     6.43
dfscf                 16       4.259      68.142     5.39
overfsm               16       0.018       0.288     0.02
writeHSX              16       0.001       0.015     0.00
state_analysis        16       0.001       0.014     0.00
siesta_move           16       0.004       0.066     0.01
Analysis               1       0.005       0.005     0.00
optical                1       0.000       0.000     0.00
  

>> End of run:   1-JUL-2025  22:13:34
Job completed
Job completed
