Executable      : siesta
Version         : 5.2.2
Architecture    : x86_64
Compiler version: GNU-13.3.0
Compiler flags  : -march=nocona -mtune=haswell -ftree-vectorize -fPIC -fstack-protector-strong -fno-plt -O2 -ffunction-sections -pipe -isystem <prefix>/include -I<prefix>/_build_env/include -fdebug-prefix-map=<prefix>/work=/usr/local/src/conda/siesta-5.2.2 -fdebug-prefix-map=<prefix>=/usr/local/src/conda-prefix -I<prefix>/lib -fallow-argument-mismatch -O3
Parallelisations: none
NetCDF support
NetCDF-4 support
Lua support
DFT-D3 support

Runtime information:
* Directory : /mnt/c/Users/jfarr/SSN/ProjectSim/Au_particles/Au_8
* Running in serial mode.
>> Start of run:   1-JUL-2025  20:11:04

                           *********************** 
                           *  WELCOME TO SIESTA  * 
                           *********************** 

 NOTE: Siesta V5 introduces some new defaults for basis-set generation
 NOTE: which might lead to slightly different numerical results.
 NOTE: Please see the manual for full details and compatibility measures.


reinit: Reading from file optimization.fdf

reinit: -----------------------------------------------------------------------
reinit: System Name: 
reinit: -----------------------------------------------------------------------
reinit: System Label: AuRel
reinit: -----------------------------------------------------------------------

initatom: Reading input for the pseudopotentials and atomic orbitals ----------
Species number:   1 Atomic number:   79 Label: Au

Ground state valence configuration (from tables):   6s01  6p00  5d10  5f00

---- Processing specs for species: Au
Reading pseudopotential information in PSML from:
  Au.psml
PSML file version: 1.1
Using libxc ids:  101 130
GGA--PBE XC_GGA_X_PBE--XC_GGA_C_PBE pb
PSML uuid: fa497b30-be45-11e7-41fb-494093d7a025
Semicore shell(s) with  8 electrons included in the valence for Au

---- Pseudopotential check for Au

Pseudized shells:
5s( 2.00) rc: 1.46
5p( 6.00) rc: 1.56
5d(10.00) rc: 1.56
5f( 0.00) rc: 1.60
Valence configuration for ps generation: 5s:5p:5d:6s: Total charge:  19.000000
Semicore shell(s): 5s 5p
Fallback to non-perturbative polarization scheme for Au
Please see the manual if this is not desired in principle
For Au, standard SIESTA heuristics set lmxkb to 3
 (one more than the basis l, including polarization orbitals).
Use PS.lmax or PS.KBprojectors blocks to override.

<basis_specs>
===============================================================================
Au                   Z=  79    Mass=  196.97        Charge= 0.17977+309
Lmxo=2 Lmxkb= 3    BasisType=split      Semic=T
L=0  Nsemic=1  Cnfigmx=6
          i=1  nzeta=1  polorb=0  (5s)  (semicore shell)
            splnorm:   0.15000    
               vcte:    40.000    
               rinn:  -0.90000    
               qcoe:    0.0000    
               qyuk:    0.0000    
               qwid:   0.10000E-01
                rcs:    0.0000    
            lambdas:    1.0000    
          i=2  nzeta=2  polorb=0  (6s)  (to be polarized non-perturbatively)
            splnorm:   0.15000    
               vcte:    40.000    
               rinn:  -0.90000    
               qcoe:    0.0000    
               qyuk:    0.0000    
               qwid:   0.10000E-01
                rcs:    0.0000      0.0000    
            lambdas:    1.0000      1.0000    
L=1  Nsemic=1  Cnfigmx=6
          i=1  nzeta=1  polorb=0  (5p)  (semicore shell)
            splnorm:   0.15000    
               vcte:    40.000    
               rinn:  -0.90000    
               qcoe:    0.0000    
               qyuk:    0.0000    
               qwid:   0.10000E-01
                rcs:    0.0000    
            lambdas:    1.0000    
          i=2  nzeta=1  polorb=0  (6p)  (non-perturbative polarization shell)
            splnorm:   0.15000    
               vcte:    40.000    
               rinn:  -0.90000    
               qcoe:    0.0000    
               qyuk:   0.49407-323
               qwid:   0.44466-322
                rcs:    0.0000    
            lambdas:    1.0000    
L=2  Nsemic=0  Cnfigmx=5
          i=1  nzeta=2  polorb=0  (5d)
            splnorm:   0.15000    
               vcte:    40.000    
               rinn:  -0.90000    
               qcoe:    0.0000    
               qyuk:    0.0000    
               qwid:   0.10000E-01
                rcs:    0.0000      0.0000    
            lambdas:    1.0000      1.0000    
-------------------------------------------------------------------------------
L=0  Nkbl=2  erefs: 0.17977+309 0.17977+309
L=1  Nkbl=2  erefs: 0.17977+309 0.17977+309
L=2  Nkbl=1  erefs: 0.17977+309
L=3  Nkbl=1  erefs: 0.17977+309
===============================================================================
</basis_specs>

Using PAO.SplitTailNorm
atom: Called for Au                    (Z =  79)
Maximum radius (at nrval) set to   50.00000 8518

read_vps: Pseudopotential generation method:
read_vps: ONCVPSP-3.Hamann's oncvpsp                        
Valence charge in pseudo generation:   19.00000

read_vps: Pseudopotential includes a core correction:
read_vps: Pseudo-core for xc-correction

xc_check: Exchange-correlation functional:
xc_check: GGA Perdew, Burke & Ernzerhof 1996
Got Vlocal (oncv-fit) from psml data
Choosing vlocal chloc cutoff:  5.037181
qtot up to nchloc:   18.99999407
atom: Maximum radius for chlocal:    5.03718
atom: Maximum radius for r*vlocal+2*Zval:    5.03718
Reading KB projs from Au psml data
Using scalar-relativistic projectors in PSML file

PSML: Kleinman-Bylander projectors: 
   l= 0   rc=  1.474132   Ekb= 18.815768
   l= 0   rc=  1.474132   Ekb= -0.390506
   l= 1   rc=  1.583336   Ekb=  4.781134
   l= 1   rc=  1.583336   Ekb= -3.699696
   l= 2   rc=  1.583336   Ekb=  2.968821
   l= 2   rc=  1.583336   Ekb=  0.574456
   l= 3   rc=  1.622038   Ekb=  2.312314

PSML: Total number of  Kleinman-Bylander projectors:  25
atom: -------------------------------------------------------------------------

atom: SANKEY-TYPE ORBITALS:
atom: Selected multiple-zeta basis: split     

SPLIT: Orbitals with angular momentum L= 0

SPLIT: Basis orbitals for state 5s

SPLIT: PAO cut-off radius determined from an
SPLIT: energy shift=  0.000735 Ry
Split based on tail norm

   izeta = 1
                 lambda =    1.000000
                     rc =    2.925359
                 energy =   -7.964134
                kinetic =    2.893592
    potential(screened) =  -10.857725
       potential(ionic) =  -37.457701

SPLIT: Basis orbitals for state 6s

SPLIT: PAO cut-off radius determined from an
SPLIT: energy shift=  0.000735 Ry
Split based on tail norm

   izeta = 1
                 lambda =    1.000000
                     rc =    8.033223
                 energy =   -0.536485
                kinetic =    1.477051
    potential(screened) =   -2.013535
       potential(ionic) =  -17.521292

   izeta = 2
                 rmatch =    4.927355
              splitnorm =    0.150000
                 energy =   -0.413505
                kinetic =    2.478661
    potential(screened) =   -2.892166
       potential(ionic) =  -20.911581

SPLIT: Orbitals with angular momentum L= 1

SPLIT: Basis orbitals for state 5p

SPLIT: PAO cut-off radius determined from an
SPLIT: energy shift=  0.000735 Ry
Split based on tail norm

   izeta = 1
                 lambda =    1.000000
                     rc =    3.518348
                 energy =   -4.393065
                kinetic =    4.954761
    potential(screened) =   -9.347826
       potential(ionic) =  -34.716971

SPLIT: Basis orbitals for state 6p
SPLIT: Non-perturbative polarization orbs for state 6s
SPLIT: rc(1st zeta) (re)set to: 8.0332 (expansion factor: 1.0000)
Split based on tail norm

   izeta = 1
                 lambda =    1.000000
                     rc =    8.033223
                 energy =   -0.028561
                kinetic =    0.837945
    potential(screened) =   -0.866506
       potential(ionic) =  -11.902774

SPLIT: Orbitals with angular momentum L= 2

SPLIT: Basis orbitals for state 5d

SPLIT: PAO cut-off radius determined from an
SPLIT: energy shift=  0.000735 Ry
Split based on tail norm

   izeta = 1
                 lambda =    1.000000
                     rc =    6.393405
                 energy =   -0.504592
                kinetic =    4.935315
    potential(screened) =   -5.439906
       potential(ionic) =  -26.571989

   izeta = 2
                 rmatch =    3.462344
              splitnorm =    0.150000
                 energy =   -0.397189
                kinetic =    6.101362
    potential(screened) =   -6.498551
       potential(ionic) =  -29.253309
atom: Total number of Sankey-type orbitals: 19

atm_pop: Valence configuration (for local Pseudopot. screening):
 5s( 2.00) 6s( 1.00)                                                  
 5p( 6.00) 6p( 0.00)                                                  
 5d(10.00)                                                            
Vna: chval, zval:   19.00000  19.00000

Vna:  Cut-off radius for the neutral-atom potential:   8.033223
comcore: Pseudo-core radius Rcore=  2.583037

atom: _________________________________________________________________________

prinput: Basis input 

PAO.BasisType split     

%block ChemicalSpeciesLabel
    1   79 Au                      # Species index, atomic number, species label
%endblock ChemicalSpeciesLabel

%block PAO.Basis                 # Define Basis set
# WARNING: This information might be incomplete!
Au                    5                    # Species label, number of l-shells
 n=5   0   1                         # n, l, Nzeta 
   2.925   
   1.000   
 n=6   0   2                         # n, l, Nzeta 
   8.033      4.927   
   1.000      1.000   
 n=5   1   1                         # n, l, Nzeta 
   3.518   
   1.000   
 n=6   1   1                         # n, l, Nzeta 
   8.033   
   1.000   
 n=5   2   2                         # n, l, Nzeta 
   6.393      3.462   
   1.000      1.000   
%endblock PAO.Basis

prinput: ----------------------------------------------------------------------

Dumping basis to NetCDF file Au.ion.nc
coor:   Atomic-coordinates input format  =     Cartesian coordinates
coor:                                          (in Angstroms)

siesta: Atomic coordinates (Bohr) and species
siesta:      0.00000   0.00000   0.00000  1        1
siesta:      0.00000   3.94129   3.94129  1        2
siesta:      3.94129   0.00000   3.94129  1        3
siesta:      3.94129   3.94129   0.00000  1        4
siesta:      7.88260   7.88260   7.88260  1        5
siesta:      7.88260   0.00000   0.00000  1        6
siesta:      0.00000   7.88260   0.00000  1        7
siesta:      0.00000   0.00000   7.88260  1        8

siesta: System type = molecule  

initatomlists: Number of atoms, orbitals, and projectors:      8   152   200

coxmol: Writing XMOL coordinates into file AuRel.xyz                                                                                                                                                                                                                           

siesta: ******************** Simulation parameters ****************************
siesta:
siesta: The following are some of the parameters of the simulation.
siesta: A complete list of the parameters used, including default values,
siesta: can be found in file out.fdf
siesta:
redata: Spin configuration                          = none
redata: Number of spin components                   = 1
redata: Time-Reversal Symmetry                      = T
redata: Spin spiral                                 = F
redata: Long output                                 =   F
redata: Number of Atomic Species                    =        1
redata: Charge density info will appear in .RHO file
redata: Write Mulliken charges (when)               = none
redata: Write Mulliken Pop.                         = NO
redata: Write Hirshfeld charges (when)              = none
redata: Write Voronoi charges (when)                = none
redata: Write spin charge (when)                    = none
redata: Matel table size (NRTAB)                    =     1024
redata: Mesh Cutoff                                 =   300.0000 Ry
redata: Net charge of the system                    =     0.0000 |e|
redata: Min. number of SCF Iter                     =        0
redata: Max. number of SCF Iter                     =     1000
redata: SCF convergence failure will abort job
redata: SCF mix quantity                            = Hamiltonian
redata: Mix DM or H after convergence               =   F
redata: Recompute H after scf cycle                 =   F
redata: Mix DM in first SCF step                    =   T
redata: Write Pulay info on disk                    =   F
redata: New DM Occupancy tolerance                  = 0.000000000001
redata: No kicks to SCF
redata: DM Mixing Weight for Kicks                  =     0.5000
redata: Require Harris convergence for SCF          =   F
redata: Harris energy tolerance for SCF             =     0.000100 eV
redata: Require DM convergence for SCF              =   T
redata: DM tolerance for SCF                        =     0.000100
redata: Require EDM convergence for SCF             =   F
redata: EDM tolerance for SCF                       =     0.001000 eV
redata: Require H convergence for SCF               =   T
redata: Hamiltonian tolerance for SCF               =     0.001000 eV
redata: Require (free) Energy convergence for SCF   =   F
redata: (free) Energy tolerance for SCF             =     0.000100 eV
redata: Using DFT-D3 dispersion                     =   F
redata: Using Saved Data (generic)                  =   F
redata: Use continuation files for DM               =   T
redata: Neglect nonoverlap interactions             =   F
redata: Method of Calculation                       = Diagonalization
redata: Electronic Temperature                      =   290.1130 K
redata: Fix the spin of the system                  =   F
redata: Max. number of TDED Iter                    =        1
redata: Number of TDED substeps                     =        3
redata: Dynamics option                             = CG coord. optimization
redata: Variable cell                               =   F
redata: Use continuation files for CG               =   F
redata: Max atomic displ per move                   =     0.1058 Ang
redata: Maximum number of optimization moves        =       15
redata: Force tolerance                             =     0.0200 eV/Ang
mix.SCF: Pulay mixing                            = Pulay
mix.SCF:    Variant                              = stable
mix.SCF:    History steps                        = 2
mix.SCF:    Linear mixing weight                 =     0.250000
mix.SCF:    Mixing weight                        =     0.250000
mix.SCF:    SVD condition                        = 0.1000E-07
redata: Save all siesta data in one NC              =   F
redata: ***********************************************************************

%block SCF.Mixers
  Pulay
%endblock SCF.Mixers

%block SCF.Mixer.Pulay
  # Mixing method
  method pulay
  variant stable

  # Mixing options
  weight 0.2500
  weight.linear 0.2500
  history 2
%endblock SCF.Mixer.Pulay

DM_history_depth set to one: no extrapolation allowed by default for geometry relaxation
Size of DM history Fstack: 1
Total number of electrons:   152.000000
Total ionic charge:   152.000000

siesta: k-grid: Number of k-points = 1
siesta: k-point is Gamma-only

diag: Algorithm                                     = D&C
diag: Used triangular part                          = Lower
diag: Absolute tolerance                            =  0.100E-15
diag: Orthogonalization factor                      =  0.100E-05
diag: Memory factor                                 =  1.0000


ts: **************************************************************
ts: Save H and S matrices                           =    F
ts: Save DM and EDM matrices                        =    F
ts: Only save the overlap matrix S                  =    F
ts: **************************************************************

************************ Begin: TS CHECKS AND WARNINGS ************************
************************ End: TS CHECKS AND WARNINGS **************************


                     ====================================
                        Begin CG opt. move =      0
                     ====================================

outcell: Unit cell vectors (Ang):
       20.000000    0.000000    0.000000
        0.000000   20.000000    0.000000
        0.000000    0.000000   20.000000

outcell: Cell vector modules (Ang)   :   20.000000   20.000000   20.000000
outcell: Cell angles (23,13,12) (deg):     90.0000     90.0000     90.0000
outcell: Cell volume (Ang**3)        :   8000.0000
<dSpData1D:S at geom step 0
  <sparsity:sparsity for geom step 0
    nrows_g=152 nrows=152 sparsity=.7932 nnzs=18326, refcount: 7>
  <dData1D:(new from dSpData1D) n=18326, refcount: 1>
refcount: 1>
new_DM -- step:     1
Initializing Density Matrix...

Attempting to read DM from file... Failed...
DM filled with atomic data:
<dSpData2D:DM initialized from atoms
  <sparsity:sparsity for geom step 0
    nrows_g=152 nrows=152 sparsity=.7932 nnzs=18326, refcount: 8>
  <dData2D:DM n=18326 m=1, refcount: 1>
refcount: 1>
No. of atoms with KB's overlaping orbs in proc 0. Max # of overlaps:       8      77

InitMesh: MESH = 216 x 216 x 216 = 10077696
InitMesh: Mesh cutoff (required, used) =   300.000   322.366 Ry
New grid distribution [1]: sub = 2

stepf: Fermi-Dirac step function

siesta: Program's energy decomposition (eV):
siesta: Ebs     =     -5975.082887
siesta: Eions   =     40622.498726
siesta: Ena     =      4100.598230
siesta: Ekin    =      8995.793731
siesta: Enl     =       537.979432
siesta: Eso     =         0.000000
siesta: Edftu   =         0.000000
siesta: DEna    =       329.141364
siesta: DUscf   =        19.484101
siesta: DUext   =         0.000000
siesta: Ex      =     -5275.863107
siesta: Ec      =      -317.589738
siesta: Exc     =     -5593.452844
siesta: EbV     =         0.000000
siesta: eta*DQ  =         0.000000
siesta: Emadel  =         0.000000
siesta: Emeta   =         0.000000
siesta: Emolmec =         0.000000
siesta: Ekinion =         0.000000
siesta: Eharris =    -32214.611610
siesta: Etot    =    -32232.954713
siesta: FreeEng =    -32232.954717

        iscf     Eharris(eV)        E_KS(eV)     FreeEng(eV)     dDmax    Ef(eV) dHmax(eV)
   scf:    1   -32214.611610   -32232.954713   -32232.954717  4.350001 -4.004851 12.195962
timer: Routine,Calls,Time,% = IterSCF        1       6.021  30.70
   scf:    2   -32222.786794   -32238.362380   -32238.362462  5.296313 -4.145919 13.358254
   scf:    3   -32229.388815   -32241.531377   -32241.531567  4.761524 -4.741797  7.058263
   scf:    4   -32233.361128   -32242.213074   -32242.214551  4.060845 -4.729968  7.394681
   scf:    5   -32238.735954   -32243.496120   -32243.499356  3.278465 -4.866566  3.816758
   scf:    6   -32244.801475   -32244.481620   -32244.488608  1.070810 -4.880957  0.774819
   scf:    7   -32244.503731   -32244.493799   -32244.501078  0.013811 -4.919119  0.578672
   scf:    8   -32241.153572   -32243.495364   -32243.500578  1.520542 -4.965506  4.258484
   scf:    9   -32244.310900   -32244.510624   -32244.518085  1.445248 -4.945737  0.395550
   scf:   10   -32244.524533   -32244.518859   -32244.526421  0.066365 -4.959463  0.202654
   scf:   11   -32244.522717   -32244.521264   -32244.528876  0.040514 -4.978498  0.093556
   scf:   12   -32244.520727   -32244.521606   -32244.529245  0.046340 -4.990476  0.048620
   scf:   13   -32244.521646   -32244.521772   -32244.529391  0.022482 -4.987097  0.020153
   scf:   14   -32244.521806   -32244.521794   -32244.529413  0.004177 -4.988287  0.006877
   scf:   15   -32244.521804   -32244.521800   -32244.529416  0.001173 -4.988949  0.003074
   scf:   16   -32244.521799   -32244.521801   -32244.529416  0.001995 -4.989303  0.003344
   scf:   17   -32244.521801   -32244.521801   -32244.529417  0.001173 -4.989091  0.000503
   scf:   18   -32244.521802   -32244.521802   -32244.529417  0.000242 -4.989081  0.000366
   scf:   19   -32244.521802   -32244.521802   -32244.529417  0.000228 -4.989064  0.000420
   scf:   20   -32244.521802   -32244.521802   -32244.529417  0.000253 -4.989049  0.000456
   scf:   21   -32244.521802   -32244.521802   -32244.529417  0.000124 -4.989041  0.000097
   scf:   22   -32244.521802   -32244.521802   -32244.529417  0.000077 -4.989027  0.000306

SCF Convergence by DM+H criterion
max |DM_out - DM_in|         :     0.0000768775
max |H_out - H_in|      (eV) :     0.0003060207
SCF cycle converged after 22 iterations

Using DM_out to compute the final energy and forces
No. of atoms with KB's overlaping orbs in proc 0. Max # of overlaps:       8      77

siesta: E_KS(eV) =           -32244.5218

siesta: E_KS - E_eggbox =    -32244.5218

siesta: Atomic forces (eV/Ang):
----------------------------------------
   Tot    0.001973    0.001973    0.001974
----------------------------------------
   Max    1.344705
   Res    0.686951    sqrt( Sum f_i^2 / 3N )
----------------------------------------
   Max    1.344705    constrained

Stress tensor Voigt[x,y,z,yz,xz,xy] (kbar):        1.63        1.63        1.63       -0.45       -0.45       -0.45
(Free)E + p*V (eV/cell)   -32252.6523
Target enthalpy (eV/cell)   -32244.5294

                     ====================================
                        Begin CG opt. move =      1
                     ====================================

outcell: Unit cell vectors (Ang):
       20.000000    0.000000    0.000000
        0.000000   20.000000    0.000000
        0.000000    0.000000   20.000000

outcell: Cell vector modules (Ang)   :   20.000000   20.000000   20.000000
outcell: Cell angles (23,13,12) (deg):     90.0000     90.0000     90.0000
outcell: Cell volume (Ang**3)        :   8000.0000
<dSpData1D:S at geom step 1
  <sparsity:sparsity for geom step 1
    nrows_g=152 nrows=152 sparsity=.7937 nnzs=18338, refcount: 7>
  <dData1D:(new from dSpData1D) n=18338, refcount: 1>
refcount: 1>
new_DM -- step:     2
Re-using DM from previous geometries...
Number of DMs in history: 1
 DM extrapolation coefficients: 
1   1.00000
New DM after history re-use:
<dSpData2D:SpM extrapolated using coords
  <sparsity:sparsity for geom step 1
    nrows_g=152 nrows=152 sparsity=.7937 nnzs=18338, refcount: 9>
  <dData2D:(temp array for extrapolation) n=18338 m=1, refcount: 1>
refcount: 1>
No. of atoms with KB's overlaping orbs in proc 0. Max # of overlaps:       8      77

InitMesh: MESH = 216 x 216 x 216 = 10077696
InitMesh: Mesh cutoff (required, used) =   300.000   322.366 Ry
New grid distribution [1]: sub = 2

        iscf     Eharris(eV)        E_KS(eV)     FreeEng(eV)     dDmax    Ef(eV) dHmax(eV)
   scf:    1   -32245.196384   -32244.696037   -32244.701634  0.533860 -5.002308  1.920379
   scf:    2   -32226.243405   -32239.140901   -32239.140918  3.239936 -4.526845 11.839870
   scf:    3   -32246.283154   -32243.368904   -32243.372153  1.195760 -4.934249  5.224036
   scf:    4   -32229.621062   -32241.198811   -32241.198811  3.791686 -5.203808  9.298895
   scf:    5   -32244.280109   -32242.856125   -32242.856763  0.722281 -5.031243  6.203019
   scf:    6   -32224.197388   -32239.871023   -32239.871023  4.515916 -4.650416 10.800216
   scf:    7   -32243.635493   -32241.878857   -32241.879351  0.748342 -4.891496  7.512953
   scf:    8   -32225.428854   -32240.527991   -32240.527991  4.348884 -5.061122 11.140801
   scf:    9   -32242.644778   -32241.630378   -32241.630379  0.345090 -5.124963  8.195898
   scf:   10   -31202.833414   -31910.338722   -31910.500924  4.915077 -2.948924108.947333
   scf:   11   -32253.059770   -32244.705789   -32244.711541  2.831069 -5.134366  2.341985
   scf:   12   -32243.508282   -32244.318846   -32244.323152  0.759353 -5.054436  4.096117
   scf:   13   -32240.750430   -32243.911589   -32243.916038  2.137871 -4.993771  3.448250
   scf:   14   -32244.302074   -32244.802307   -32244.808514  1.538249 -4.995045  1.352006
   scf:   15   -32244.876077   -32244.849087   -32244.855596  0.171007 -4.980188  0.568946
   scf:   16   -32244.858715   -32244.854542   -32244.861131  0.028099 -4.969923  0.275419
   scf:   17   -32244.797860   -32244.841993   -32244.848741  0.222440 -4.959791  0.604485
   scf:   18   -32244.855023   -32244.857514   -32244.864165  0.169919 -4.966926  0.051407
   scf:   19   -32244.857681   -32244.857631   -32244.864294  0.010042 -4.966463  0.014099
   scf:   20   -32244.857639   -32244.857640   -32244.864306  0.003735 -4.966357  0.002137
   scf:   21   -32244.857640   -32244.857640   -32244.864307  0.000133 -4.966391  0.001479
   scf:   22   -32244.857610   -32244.857630   -32244.864299  0.004203 -4.966376  0.012358
   scf:   23   -32244.857641   -32244.857640   -32244.864307  0.004068 -4.966417  0.001136
   scf:   24   -32244.857641   -32244.857641   -32244.864307  0.000147 -4.966431  0.000777
   scf:   25   -32244.857642   -32244.857642   -32244.864307  0.000224 -4.966462  0.000182
   scf:   26   -32244.857642   -32244.857642   -32244.864307  0.000122 -4.966469  0.000229
   scf:   27   -32244.857642   -32244.857642   -32244.864307  0.000125 -4.966469  0.000147
   scf:   28   -32244.857642   -32244.857642   -32244.864307  0.000022 -4.966472  0.000077

SCF Convergence by DM+H criterion
max |DM_out - DM_in|         :     0.0000219381
max |H_out - H_in|      (eV) :     0.0000771892
SCF cycle converged after 28 iterations

Using DM_out to compute the final energy and forces
No. of atoms with KB's overlaping orbs in proc 0. Max # of overlaps:       8      77

siesta: E_KS(eV) =           -32244.8576

siesta: Atomic forces (eV/Ang):
----------------------------------------
   Tot   -0.002804   -0.002804   -0.002804
----------------------------------------
   Max    1.253528
   Res    0.606941    sqrt( Sum f_i^2 / 3N )
----------------------------------------
   Max    1.253528    constrained

Stress tensor Voigt[x,y,z,yz,xz,xy] (kbar):        1.42        1.42        1.42       -0.40       -0.40       -0.40
(Free)E + p*V (eV/cell)   -32251.9375
Target enthalpy (eV/cell)   -32244.8643

                     ====================================
                        Begin CG opt. move =      2
                     ====================================

outcell: Unit cell vectors (Ang):
       20.000000    0.000000    0.000000
        0.000000   20.000000    0.000000
        0.000000    0.000000   20.000000

outcell: Cell vector modules (Ang)   :   20.000000   20.000000   20.000000
outcell: Cell angles (23,13,12) (deg):     90.0000     90.0000     90.0000
outcell: Cell volume (Ang**3)        :   8000.0000
<dSpData1D:S at geom step 2
  <sparsity:sparsity for geom step 2
    nrows_g=152 nrows=152 sparsity=.7984 nnzs=18446, refcount: 7>
  <dData1D:(new from dSpData1D) n=18446, refcount: 1>
refcount: 1>
new_DM -- step:     3
Re-using DM from previous geometries...
Number of DMs in history: 1
 DM extrapolation coefficients: 
1   1.00000
New DM after history re-use:
<dSpData2D:SpM extrapolated using coords
  <sparsity:sparsity for geom step 2
    nrows_g=152 nrows=152 sparsity=.7984 nnzs=18446, refcount: 9>
  <dData2D:(temp array for extrapolation) n=18446 m=1, refcount: 1>
refcount: 1>
No. of atoms with KB's overlaping orbs in proc 0. Max # of overlaps:       8      77

InitMesh: MESH = 216 x 216 x 216 = 10077696
InitMesh: Mesh cutoff (required, used) =   300.000   322.366 Ry
New grid distribution [1]: sub = 2

        iscf     Eharris(eV)        E_KS(eV)     FreeEng(eV)     dDmax    Ef(eV) dHmax(eV)
   scf:    1   -32245.451191   -32245.032332   -32245.036334  0.669367 -4.989049  2.463470
   scf:    2   -32215.280474   -32235.904469   -32235.932529  3.385428 -4.288966 16.402839
   scf:    3   -32248.408237   -32243.482289   -32243.484255  1.106852 -4.901643  5.629580
   scf:    4   -32230.014590   -32241.733209   -32241.733209  3.961867 -5.121358  8.671698
   scf:    5   -32244.886346   -32243.441156   -32243.441714  0.692051 -4.989360  5.913301
   scf:    6   -32225.310165   -32240.422868   -32240.422868  4.457115 -4.713472 10.160295
   scf:    7   -32244.948776   -32242.895745   -32242.896718  0.835214 -4.869656  6.672254
   scf:    8   -32228.542165   -32241.516429   -32241.516429  4.210966 -5.173252  9.609669
   scf:    9   -32243.742951   -32242.681344   -32242.681388  0.499129 -5.028326  7.138077
   scf:   10   -31236.601534   -31919.830675   -31919.996159  4.773171 -4.053721106.181488
   scf:   11   -32269.482055   -32244.985500   -32244.990352  2.305908 -5.063996  2.850249
   scf:   12   -32240.230519   -32243.895578   -32243.896997  2.028371 -4.985694  5.451493
   scf:   13   -32244.907197   -32245.256905   -32245.262209  1.696322 -4.959782  0.600141
   scf:   14   -32245.200637   -32245.268183   -32245.273331  0.378830 -4.945936  0.778284
   scf:   15   -32245.290757   -32245.285051   -32245.290343  0.134350 -4.939666  0.258994
   scf:   16   -32245.279123   -32245.282741   -32245.288011  0.053365 -4.934813  0.315800
   scf:   17   -32245.282507   -32245.285558   -32245.290894  0.104014 -4.934978  0.060735
   scf:   18   -32245.282200   -32245.285173   -32245.290475  0.071769 -4.932915  0.179596
   scf:   19   -32245.286149   -32245.285708   -32245.291020  0.012179 -4.932396  0.132262
   scf:   20   -32245.286231   -32245.285996   -32245.291321  0.005791 -4.930735  0.076703
   scf:   21   -32245.283536   -32245.285570   -32245.290935  0.049347 -4.928171  0.125964
   scf:   22   -32245.286152   -32245.286226   -32245.291565  0.033654 -4.929757  0.010363
   scf:   23   -32245.286231   -32245.286230   -32245.291570  0.002175 -4.929657  0.002171
   scf:   24   -32245.286231   -32245.286230   -32245.291571  0.000456 -4.929655  0.000776
   scf:   25   -32245.286232   -32245.286231   -32245.291571  0.000075 -4.929673  0.000590

SCF Convergence by DM+H criterion
max |DM_out - DM_in|         :     0.0000748867
max |H_out - H_in|      (eV) :     0.0005899304
SCF cycle converged after 25 iterations

Using DM_out to compute the final energy and forces
No. of atoms with KB's overlaping orbs in proc 0. Max # of overlaps:       8      77

siesta: E_KS(eV) =           -32245.2862

siesta: Atomic forces (eV/Ang):
----------------------------------------
   Tot    0.001044    0.001044    0.001043
----------------------------------------
   Max    1.027736
   Res    0.457297    sqrt( Sum f_i^2 / 3N )
----------------------------------------
   Max    1.027736    constrained

Stress tensor Voigt[x,y,z,yz,xz,xy] (kbar):        0.97        0.97        0.97       -0.30       -0.30       -0.30
(Free)E + p*V (eV/cell)   -32250.1283
Target enthalpy (eV/cell)   -32245.2916

                     ====================================
                        Begin CG opt. move =      3
                     ====================================

outcell: Unit cell vectors (Ang):
       20.000000    0.000000    0.000000
        0.000000   20.000000    0.000000
        0.000000    0.000000   20.000000

outcell: Cell vector modules (Ang)   :   20.000000   20.000000   20.000000
outcell: Cell angles (23,13,12) (deg):     90.0000     90.0000     90.0000
outcell: Cell volume (Ang**3)        :   8000.0000
<dSpData1D:S at geom step 3
  <sparsity:sparsity for geom step 3
    nrows_g=152 nrows=152 sparsity=.8163 nnzs=18860, refcount: 7>
  <dData1D:(new from dSpData1D) n=18860, refcount: 1>
refcount: 1>
new_DM -- step:     4
Re-using DM from previous geometries...
Number of DMs in history: 1
 DM extrapolation coefficients: 
1   1.00000
New DM after history re-use:
<dSpData2D:SpM extrapolated using coords
  <sparsity:sparsity for geom step 3
    nrows_g=152 nrows=152 sparsity=.8163 nnzs=18860, refcount: 9>
  <dData2D:(temp array for extrapolation) n=18860 m=1, refcount: 1>
refcount: 1>
No. of atoms with KB's overlaping orbs in proc 0. Max # of overlaps:       8      86

InitMesh: MESH = 216 x 216 x 216 = 10077696
InitMesh: Mesh cutoff (required, used) =   300.000   322.366 Ry
New grid distribution [1]: sub = 2

        iscf     Eharris(eV)        E_KS(eV)     FreeEng(eV)     dDmax    Ef(eV) dHmax(eV)
   scf:    1   -32245.127274   -32245.299097   -32245.301789  0.613674 -4.970748  2.422035
   scf:    2   -32226.085343   -32239.575667   -32239.576460  3.341051 -4.233670 12.946571
   scf:    3   -32247.212866   -32244.199981   -32244.201907  1.243841 -4.847834  4.866950
   scf:    4   -32231.739202   -32242.198467   -32242.198467  3.661062 -5.093863  8.865065
   scf:    5   -32245.668522   -32244.123105   -32244.123755  0.687334 -4.927390  5.202998
   scf:    6   -32227.503816   -32241.027372   -32241.027372  4.217933 -4.681007  9.728428
   scf:    7   -32246.768804   -32244.453501   -32244.455716  1.298034 -4.835264  4.471074
   scf:    8   -32235.078387   -32243.048198   -32243.048224  3.377136 -4.975100  7.053021
   scf:    9   -32246.411422   -32245.222282   -32245.224872  1.268262 -4.889076  2.398007
   scf:   10   -32242.588135   -32244.838908   -32244.841799  1.834458 -4.841422  3.576401
   scf:   11   -32245.538206   -32245.533151   -32245.536812  1.115205 -4.869571  0.046438
   scf:   12   -32245.533200   -32245.533283   -32245.536977  0.018692 -4.869254  0.016461
   scf:   13   -32245.533295   -32245.533298   -32245.536996  0.005877 -4.869732  0.004679
   scf:   14   -32245.533299   -32245.533299   -32245.537000  0.000163 -4.870068  0.004157
   scf:   15   -32245.533097   -32245.533235   -32245.536947  0.011190 -4.870817  0.033712
   scf:   16   -32245.533270   -32245.533297   -32245.536999  0.012445 -4.870615  0.007194
   scf:   17   -32245.533301   -32245.533299   -32245.537002  0.000751 -4.870974  0.004888
   scf:   18   -32245.533302   -32245.533302   -32245.537004  0.001587 -4.871804  0.000404
   scf:   19   -32245.533304   -32245.533303   -32245.537004  0.000194 -4.871838  0.000308
   scf:   20   -32245.533304   -32245.533303   -32245.537004  0.000280 -4.871827  0.000630
   scf:   21   -32245.533303   -32245.533303   -32245.537004  0.000249 -4.871825  0.000177
   scf:   22   -32245.533304   -32245.533304   -32245.537004  0.000052 -4.871817  0.000063

SCF Convergence by DM+H criterion
max |DM_out - DM_in|         :     0.0000515165
max |H_out - H_in|      (eV) :     0.0000633087
SCF cycle converged after 22 iterations

Using DM_out to compute the final energy and forces
No. of atoms with KB's overlaping orbs in proc 0. Max # of overlaps:       8      86

siesta: E_KS(eV) =           -32245.5333

siesta: Atomic forces (eV/Ang):
----------------------------------------
   Tot    0.000525    0.000525    0.000525
----------------------------------------
   Max    0.699741
   Res    0.507762    sqrt( Sum f_i^2 / 3N )
----------------------------------------
   Max    0.699741    constrained

Stress tensor Voigt[x,y,z,yz,xz,xy] (kbar):       -0.12       -0.12       -0.12       -0.05       -0.05       -0.05
(Free)E + p*V (eV/cell)   -32244.9320
Target enthalpy (eV/cell)   -32245.5370

                     ====================================
                        Begin CG opt. move =      4
                     ====================================

outcell: Unit cell vectors (Ang):
       20.000000    0.000000    0.000000
        0.000000   20.000000    0.000000
        0.000000    0.000000   20.000000

outcell: Cell vector modules (Ang)   :   20.000000   20.000000   20.000000
outcell: Cell angles (23,13,12) (deg):     90.0000     90.0000     90.0000
outcell: Cell volume (Ang**3)        :   8000.0000
<dSpData1D:S at geom step 4
  <sparsity:sparsity for geom step 4
    nrows_g=152 nrows=152 sparsity=.8005 nnzs=18494, refcount: 7>
  <dData1D:(new from dSpData1D) n=18494, refcount: 1>
refcount: 1>
new_DM -- step:     5
Re-using DM from previous geometries...
Number of DMs in history: 1
 DM extrapolation coefficients: 
1   1.00000
New DM after history re-use:
<dSpData2D:SpM extrapolated using coords
  <sparsity:sparsity for geom step 4
    nrows_g=152 nrows=152 sparsity=.8005 nnzs=18494, refcount: 9>
  <dData2D:(temp array for extrapolation) n=18494 m=1, refcount: 1>
refcount: 1>
No. of atoms with KB's overlaping orbs in proc 0. Max # of overlaps:       8      77

InitMesh: MESH = 216 x 216 x 216 = 10077696
InitMesh: Mesh cutoff (required, used) =   300.000   322.366 Ry
New grid distribution [1]: sub = 2

        iscf     Eharris(eV)        E_KS(eV)     FreeEng(eV)     dDmax    Ef(eV) dHmax(eV)
   scf:    1   -32245.460014   -32245.534882   -32245.538934  0.079226 -4.862816  0.323488
   scf:    2   -32242.231013   -32244.457055   -32244.458226  1.417185 -4.953929  4.734403
   scf:    3   -32245.711639   -32245.534644   -32245.538524  1.252742 -4.880529  0.288934
   scf:    4   -32245.541083   -32245.539844   -32245.543788  0.082701 -4.880335  0.047274
   scf:    5   -32245.539545   -32245.539719   -32245.543656  0.009585 -4.881850  0.063502
   scf:    6   -32245.538489   -32245.539620   -32245.543582  0.042969 -4.880663  0.079390
   scf:    7   -32245.539679   -32245.539914   -32245.543858  0.031029 -4.881857  0.025087
   scf:    8   -32245.539957   -32245.539939   -32245.543884  0.003489 -4.881847  0.013754
   scf:    9   -32245.539952   -32245.539950   -32245.543896  0.003612 -4.881807  0.001840
   scf:   10   -32245.539950   -32245.539950   -32245.543896  0.000649 -4.881746  0.000687
   scf:   11   -32245.539951   -32245.539951   -32245.543897  0.000338 -4.881726  0.000565
   scf:   12   -32245.539950   -32245.539951   -32245.543896  0.000520 -4.881690  0.001213
   scf:   13   -32245.539951   -32245.539951   -32245.543897  0.000337 -4.881688  0.000285
   scf:   14   -32245.539951   -32245.539951   -32245.543897  0.000122 -4.881663  0.000564
   scf:   15   -32245.539951   -32245.539951   -32245.543897  0.000367 -4.881676  0.000652
   scf:   16   -32245.539951   -32245.539951   -32245.543897  0.000282 -4.881652  0.000301
   scf:   17   -32245.539951   -32245.539951   -32245.543897  0.000065 -4.881647  0.000155

SCF Convergence by DM+H criterion
max |DM_out - DM_in|         :     0.0000646351
max |H_out - H_in|      (eV) :     0.0001545403
SCF cycle converged after 17 iterations

Using DM_out to compute the final energy and forces
No. of atoms with KB's overlaping orbs in proc 0. Max # of overlaps:       8      77

siesta: E_KS(eV) =           -32245.5400

siesta: Atomic forces (eV/Ang):
----------------------------------------
   Tot    0.001261    0.001261    0.001260
----------------------------------------
   Max    0.547748
   Res    0.437728    sqrt( Sum f_i^2 / 3N )
----------------------------------------
   Max    0.547748    constrained

Stress tensor Voigt[x,y,z,yz,xz,xy] (kbar):        0.11        0.11        0.11       -0.10       -0.10       -0.10
(Free)E + p*V (eV/cell)   -32246.0701
Target enthalpy (eV/cell)   -32245.5439

cgvc: Finished line minimization    1.  Mean atomic displacement =    0.1751

                     ====================================
                        Begin CG opt. move =      5
                     ====================================

outcell: Unit cell vectors (Ang):
       20.000000    0.000000    0.000000
        0.000000   20.000000    0.000000
        0.000000    0.000000   20.000000

outcell: Cell vector modules (Ang)   :   20.000000   20.000000   20.000000
outcell: Cell angles (23,13,12) (deg):     90.0000     90.0000     90.0000
outcell: Cell volume (Ang**3)        :   8000.0000
<dSpData1D:S at geom step 5
  <sparsity:sparsity for geom step 5
    nrows_g=152 nrows=152 sparsity=.8441 nnzs=19502, refcount: 7>
  <dData1D:(new from dSpData1D) n=19502, refcount: 1>
refcount: 1>
new_DM -- step:     6
Re-using DM from previous geometries...
Number of DMs in history: 1
 DM extrapolation coefficients: 
1   1.00000
New DM after history re-use:
<dSpData2D:SpM extrapolated using coords
  <sparsity:sparsity for geom step 5
    nrows_g=152 nrows=152 sparsity=.8441 nnzs=19502, refcount: 9>
  <dData2D:(temp array for extrapolation) n=19502 m=1, refcount: 1>
refcount: 1>
No. of atoms with KB's overlaping orbs in proc 0. Max # of overlaps:       8      93

InitMesh: MESH = 216 x 216 x 216 = 10077696
InitMesh: Mesh cutoff (required, used) =   300.000   322.366 Ry
New grid distribution [1]: sub = 2

        iscf     Eharris(eV)        E_KS(eV)     FreeEng(eV)     dDmax    Ef(eV) dHmax(eV)
   scf:    1   -32244.425442   -32245.170537   -32245.173243  0.801417 -4.937138  2.897037
   scf:    2   -32218.958752   -32237.699927   -32237.699928  2.865599 -4.334482 14.132476
   scf:    3   -32246.950955   -32243.344863   -32243.344904  0.705904 -4.955399  6.819534
   scf:    4   -32220.730891   -32239.592217   -32239.592218  4.676799 -4.364690 11.570947
   scf:    5   -32245.378502   -32242.784057   -32242.784288  0.859241 -4.786517  7.335146
   scf:    6   -32226.925100   -32241.514957   -32241.514957  4.284315 -4.964824 10.579042
   scf:    7   -32244.084717   -32242.866095   -32242.866098  0.437291 -4.971676  7.488668
   scf:    8   -31218.350558   -31914.516866   -31914.682218  4.832606 -3.668686107.196233
   scf:    9   -32253.880554   -32245.571250   -32245.574195  2.884834 -5.031810  2.345982
   scf:   10   -32244.676229   -32245.277225   -32245.279180  0.642418 -4.955131  3.749238
   scf:   11   -32242.497226   -32244.966378   -32244.968687  1.876132 -4.892576  2.901596
   scf:   12   -32245.382663   -32245.681235   -32245.684038  1.296529 -4.885765  1.072924
   scf:   13   -32245.722612   -32245.708766   -32245.711691  0.139624 -4.868509  0.395560
   scf:   14   -32245.709679   -32245.709342   -32245.712273  0.013915 -4.857654  0.266505
   scf:   15   -32245.352925   -32245.602156   -32245.605162  0.485590 -4.844453  1.407783
   scf:   16   -32245.702233   -32245.711721   -32245.714679  0.447218 -4.854467  0.100415
   scf:   17   -32245.712218   -32245.712015   -32245.714981  0.011031 -4.853166  0.049605
   scf:   18   -32245.712124   -32245.712117   -32245.715089  0.011413 -4.851727  0.002104
   scf:   19   -32245.712119   -32245.712118   -32245.715090  0.000164 -4.851641  0.001582
   scf:   20   -32245.712122   -32245.712120   -32245.715090  0.000255 -4.851497  0.001051
   scf:   21   -32245.712112   -32245.712117   -32245.715088  0.002031 -4.851478  0.006222
   scf:   22   -32245.712121   -32245.712120   -32245.715090  0.001712 -4.851488  0.000376
   scf:   23   -32245.712121   -32245.712120   -32245.715090  0.000022 -4.851486  0.000209

SCF Convergence by DM+H criterion
max |DM_out - DM_in|         :     0.0000222742
max |H_out - H_in|      (eV) :     0.0002091225
SCF cycle converged after 23 iterations

Using DM_out to compute the final energy and forces
No. of atoms with KB's overlaping orbs in proc 0. Max # of overlaps:       8      93

siesta: E_KS(eV) =           -32245.7121

siesta: Atomic forces (eV/Ang):
----------------------------------------
   Tot    0.001800    0.001800    0.001799
----------------------------------------
   Max    0.384395
   Res    0.173200    sqrt( Sum f_i^2 / 3N )
----------------------------------------
   Max    0.384395    constrained

Stress tensor Voigt[x,y,z,yz,xz,xy] (kbar):       -0.19       -0.19       -0.19        0.25        0.25        0.25
(Free)E + p*V (eV/cell)   -32244.7699
Target enthalpy (eV/cell)   -32245.7151

                     ====================================
                        Begin CG opt. move =      6
                     ====================================

outcell: Unit cell vectors (Ang):
       20.000000    0.000000    0.000000
        0.000000   20.000000    0.000000
        0.000000    0.000000   20.000000

outcell: Cell vector modules (Ang)   :   20.000000   20.000000   20.000000
outcell: Cell angles (23,13,12) (deg):     90.0000     90.0000     90.0000
outcell: Cell volume (Ang**3)        :   8000.0000
<dSpData1D:S at geom step 6
  <sparsity:sparsity for geom step 6
    nrows_g=152 nrows=152 sparsity=.8441 nnzs=19502, refcount: 7>
  <dData1D:(new from dSpData1D) n=19502, refcount: 1>
refcount: 1>
new_DM -- step:     7
Re-using DM from previous geometries...
Number of DMs in history: 1
 DM extrapolation coefficients: 
1   1.00000
New DM after history re-use:
<dSpData2D:SpM extrapolated using coords
  <sparsity:sparsity for geom step 6
    nrows_g=152 nrows=152 sparsity=.8441 nnzs=19502, refcount: 9>
  <dData2D:(temp array for extrapolation) n=19502 m=1, refcount: 1>
refcount: 1>
No. of atoms with KB's overlaping orbs in proc 0. Max # of overlaps:       8      93

InitMesh: MESH = 216 x 216 x 216 = 10077696
InitMesh: Mesh cutoff (required, used) =   300.000   322.366 Ry
New grid distribution [1]: sub = 2

        iscf     Eharris(eV)        E_KS(eV)     FreeEng(eV)     dDmax    Ef(eV) dHmax(eV)
   scf:    1   -32245.374133   -32245.698350   -32245.701398  0.201331 -4.834541  0.705870
   scf:    2   -32231.250980   -32241.062976   -32241.062979  2.782575 -4.799938  8.967463
   scf:    3   -32246.340281   -32245.719233   -32245.722445  2.442504 -4.845142  0.475929
   scf:    4   -32245.638416   -32245.708996   -32245.712028  0.326915 -4.855699  0.610471
   scf:    5   -32245.731891   -32245.730243   -32245.733407  0.184219 -4.852590  0.017786
   scf:    6   -32245.730299   -32245.730274   -32245.733439  0.001632 -4.853755  0.008021
   scf:    7   -32245.730292   -32245.730288   -32245.733453  0.003168 -4.854958  0.004080
   scf:    8   -32245.730283   -32245.730289   -32245.733451  0.003263 -4.854946  0.006656
   scf:    9   -32245.730292   -32245.730292   -32245.733454  0.002093 -4.855079  0.001010
   scf:   10   -32245.730294   -32245.730293   -32245.733455  0.000289 -4.855177  0.000872
   scf:   11   -32245.730291   -32245.730292   -32245.733454  0.001059 -4.855208  0.002921
   scf:   12   -32245.730294   -32245.730294   -32245.733455  0.000981 -4.855251  0.000575
   scf:   13   -32245.730294   -32245.730294   -32245.733455  0.000130 -4.855292  0.000352
   scf:   14   -32245.730295   -32245.730294   -32245.733455  0.000348 -4.855339  0.001009
   scf:   15   -32245.730294   -32245.730294   -32245.733455  0.000429 -4.855326  0.000403
   scf:   16   -32245.730295   -32245.730294   -32245.733455  0.000116 -4.855351  0.000184
   scf:   17   -32245.730294   -32245.730294   -32245.733455  0.000096 -4.855365  0.000321

SCF Convergence by DM+H criterion
max |DM_out - DM_in|         :     0.0000961947
max |H_out - H_in|      (eV) :     0.0003209718
SCF cycle converged after 17 iterations

Using DM_out to compute the final energy and forces
No. of atoms with KB's overlaping orbs in proc 0. Max # of overlaps:       8      93

siesta: E_KS(eV) =           -32245.7303

siesta: Atomic forces (eV/Ang):
----------------------------------------
   Tot    0.001790    0.001790    0.001791
----------------------------------------
   Max    0.162276
   Res    0.110491    sqrt( Sum f_i^2 / 3N )
----------------------------------------
   Max    0.162276    constrained

Stress tensor Voigt[x,y,z,yz,xz,xy] (kbar):       -0.07       -0.07       -0.07        0.15        0.15        0.15
(Free)E + p*V (eV/cell)   -32245.3676
Target enthalpy (eV/cell)   -32245.7335

cgvc: Finished line minimization    2.  Mean atomic displacement =    0.1321

                     ====================================
                        Begin CG opt. move =      7
                     ====================================

outcell: Unit cell vectors (Ang):
       20.000000    0.000000    0.000000
        0.000000   20.000000    0.000000
        0.000000    0.000000   20.000000

outcell: Cell vector modules (Ang)   :   20.000000   20.000000   20.000000
outcell: Cell angles (23,13,12) (deg):     90.0000     90.0000     90.0000
outcell: Cell volume (Ang**3)        :   8000.0000
<dSpData1D:S at geom step 7
  <sparsity:sparsity for geom step 7
    nrows_g=152 nrows=152 sparsity=.8129 nnzs=18782, refcount: 7>
  <dData1D:(new from dSpData1D) n=18782, refcount: 1>
refcount: 1>
new_DM -- step:     8
Re-using DM from previous geometries...
Number of DMs in history: 1
 DM extrapolation coefficients: 
1   1.00000
New DM after history re-use:
<dSpData2D:SpM extrapolated using coords
  <sparsity:sparsity for geom step 7
    nrows_g=152 nrows=152 sparsity=.8129 nnzs=18782, refcount: 9>
  <dData2D:(temp array for extrapolation) n=18782 m=1, refcount: 1>
refcount: 1>
No. of atoms with KB's overlaping orbs in proc 0. Max # of overlaps:       8      83

InitMesh: MESH = 216 x 216 x 216 = 10077696
InitMesh: Mesh cutoff (required, used) =   300.000   322.366 Ry
New grid distribution [1]: sub = 2

        iscf     Eharris(eV)        E_KS(eV)     FreeEng(eV)     dDmax    Ef(eV) dHmax(eV)
   scf:    1   -32244.719844   -32245.402560   -32245.405251  0.679911 -4.812135  2.416317
   scf:    2   -32229.324038   -32240.771904   -32240.771904  2.733185 -5.026651 11.484517
   scf:    3   -32246.432837   -32244.024937   -32244.025247  0.970316 -4.918922  5.484966
   scf:    4   -32223.740142   -32240.123422   -32240.123422  4.342528 -4.450079 11.257461
   scf:    5   -32245.756030   -32243.249178   -32243.249601  0.956886 -4.802235  6.702856
   scf:    6   -32228.636994   -32241.803800   -32241.803800  4.148214 -5.108161  9.843935
   scf:    7   -32244.573064   -32243.270273   -32243.270302  0.596042 -4.963691  6.781753
   scf:    8   -32196.373595   -32232.090926   -32232.157219  4.678532 -4.244725 19.694657
   scf:    9   -32250.040093   -32242.964848   -32242.965140  1.011097 -4.842729  6.483978
   scf:   10   -32229.158400   -32242.038806   -32242.038806  4.315769 -5.014412  7.976350
   scf:   11   -32245.483334   -32243.926615   -32243.926842  0.746313 -4.924822  5.641958
   scf:   12   -32225.506004   -32240.690610   -32240.690610  4.364432 -4.685891  9.565682
   scf:   13   -32246.660202   -32244.152381   -32244.153495  1.084532 -4.824377  5.183367
   scf:   14   -32232.519754   -32242.588516   -32242.588516  3.748101 -5.022035  7.835468
   scf:   15   -32246.270008   -32244.710054   -32244.710929  0.884622 -4.904287  4.158745
   scf:   16   -32231.706788   -32242.123246   -32242.123285  3.651854 -4.768848  8.038546
   scf:   17   -32246.625503   -32245.582412   -32245.585075  2.007027 -4.857337  1.237970
   scf:   18   -32245.403740   -32245.620375   -32245.622837  0.672166 -4.873837  0.927441
   scf:   19   -32245.670976   -32245.668811   -32245.671481  0.284898 -4.867454  0.007635
   scf:   20   -32245.668840   -32245.668829   -32245.671505  0.002475 -4.868283  0.010012
   scf:   21   -32245.668699   -32245.668797   -32245.671477  0.010700 -4.867855  0.026260
   scf:   22   -32245.668801   -32245.668834   -32245.671511  0.011375 -4.868931  0.010593
   scf:   23   -32245.668843   -32245.668838   -32245.671516  0.000570 -4.869237  0.008842
   scf:   24   -32245.668855   -32245.668848   -32245.671523  0.001002 -4.870839  0.004079
   scf:   25   -32245.668847   -32245.668850   -32245.671522  0.002712 -4.871775  0.005449
   scf:   26   -32245.668851   -32245.668852   -32245.671524  0.001799 -4.871330  0.001097
   scf:   27   -32245.668854   -32245.668853   -32245.671524  0.000357 -4.871415  0.000179
   scf:   28   -32245.668854   -32245.668853   -32245.671524  0.000081 -4.871419  0.000263

SCF Convergence by DM+H criterion
max |DM_out - DM_in|         :     0.0000812983
max |H_out - H_in|      (eV) :     0.0002630817
SCF cycle converged after 28 iterations

Using DM_out to compute the final energy and forces
No. of atoms with KB's overlaping orbs in proc 0. Max # of overlaps:       8      83

siesta: E_KS(eV) =           -32245.6689

siesta: Atomic forces (eV/Ang):
----------------------------------------
   Tot    0.000913    0.000913    0.000913
----------------------------------------
   Max    0.441012
   Res    0.302781    sqrt( Sum f_i^2 / 3N )
----------------------------------------
   Max    0.441012    constrained

Stress tensor Voigt[x,y,z,yz,xz,xy] (kbar):        0.71        0.71        0.71       -0.07       -0.07       -0.07
(Free)E + p*V (eV/cell)   -32249.2070
Target enthalpy (eV/cell)   -32245.6715

                     ====================================
                        Begin CG opt. move =      8
                     ====================================

outcell: Unit cell vectors (Ang):
       20.000000    0.000000    0.000000
        0.000000   20.000000    0.000000
        0.000000    0.000000   20.000000

outcell: Cell vector modules (Ang)   :   20.000000   20.000000   20.000000
outcell: Cell angles (23,13,12) (deg):     90.0000     90.0000     90.0000
outcell: Cell volume (Ang**3)        :   8000.0000
<dSpData1D:S at geom step 8
  <sparsity:sparsity for geom step 8
    nrows_g=152 nrows=152 sparsity=.8441 nnzs=19502, refcount: 7>
  <dData1D:(new from dSpData1D) n=19502, refcount: 1>
refcount: 1>
new_DM -- step:     9
Re-using DM from previous geometries...
Number of DMs in history: 1
 DM extrapolation coefficients: 
1   1.00000
New DM after history re-use:
<dSpData2D:SpM extrapolated using coords
  <sparsity:sparsity for geom step 8
    nrows_g=152 nrows=152 sparsity=.8441 nnzs=19502, refcount: 9>
  <dData2D:(temp array for extrapolation) n=19502 m=1, refcount: 1>
refcount: 1>
No. of atoms with KB's overlaping orbs in proc 0. Max # of overlaps:       8      93

InitMesh: MESH = 216 x 216 x 216 = 10077696
InitMesh: Mesh cutoff (required, used) =   300.000   322.366 Ry
New grid distribution [1]: sub = 2

        iscf     Eharris(eV)        E_KS(eV)     FreeEng(eV)     dDmax    Ef(eV) dHmax(eV)
   scf:    1   -32245.256390   -32245.631995   -32245.634482  0.445733 -4.896834  1.575279
   scf:    2   -32227.660538   -32240.101958   -32240.101958  3.156533 -4.497129 11.132301
   scf:    3   -32247.759014   -32245.118804   -32245.121201  1.702402 -4.841868  3.328913
   scf:    4   -32236.574039   -32243.419491   -32243.419542  2.932161 -4.953032  6.788692
   scf:    5   -32246.539562   -32245.595317   -32245.597754  1.407531 -4.874049  1.656933
   scf:    6   -32244.822142   -32245.544961   -32245.547882  1.081615 -4.846110  1.898766
   scf:    7   -32245.753704   -32245.745205   -32245.748173  0.577444 -4.859723  0.012811
   scf:    8   -32245.745134   -32245.745178   -32245.748157  0.004958 -4.859432  0.024924
   scf:    9   -32245.745224   -32245.745210   -32245.748184  0.005751 -4.859473  0.007611
   scf:   10   -32245.745207   -32245.745209   -32245.748187  0.000586 -4.859514  0.007804
   scf:   11   -32245.744970   -32245.745141   -32245.748114  0.013174 -4.859889  0.035864
   scf:   12   -32245.745206   -32245.745211   -32245.748191  0.011399 -4.859732  0.001572
   scf:   13   -32245.745210   -32245.745211   -32245.748192  0.000710 -4.859909  0.001805
   scf:   14   -32245.745210   -32245.745210   -32245.748192  0.000955 -4.859928  0.002008
   scf:   15   -32245.745210   -32245.745211   -32245.748192  0.001144 -4.860073  0.002128
   scf:   16   -32245.745210   -32245.745211   -32245.748192  0.000459 -4.860098  0.001132
   scf:   17   -32245.745210   -32245.745210   -32245.748192  0.000340 -4.860225  0.001806
   scf:   18   -32245.745209   -32245.745210   -32245.748192  0.001037 -4.860110  0.001743
   scf:   19   -32245.745211   -32245.745210   -32245.748192  0.000707 -4.860236  0.001017
   scf:   20   -32245.745210   -32245.745210   -32245.748192  0.000139 -4.860253  0.000700
   scf:   21   -32245.745211   -32245.745210   -32245.748192  0.000267 -4.860345  0.001302
   scf:   22   -32245.745210   -32245.745210   -32245.748193  0.000564 -4.860263  0.000643
   scf:   23   -32245.745211   -32245.745210   -32245.748193  0.000303 -4.860331  0.000611
   scf:   24   -32245.745210   -32245.745210   -32245.748193  0.000099 -4.860336  0.000392

SCF Convergence by DM+H criterion
max |DM_out - DM_in|         :     0.0000992815
max |H_out - H_in|      (eV) :     0.0003921848
SCF cycle converged after 24 iterations

Using DM_out to compute the final energy and forces
No. of atoms with KB's overlaping orbs in proc 0. Max # of overlaps:       8      93

siesta: E_KS(eV) =           -32245.7452

siesta: Atomic forces (eV/Ang):
----------------------------------------
   Tot   -0.000868   -0.000867   -0.000867
----------------------------------------
   Max    0.168792
   Res    0.088298    sqrt( Sum f_i^2 / 3N )
----------------------------------------
   Max    0.168792    constrained

Stress tensor Voigt[x,y,z,yz,xz,xy] (kbar):        0.22        0.22        0.22        0.07        0.07        0.07
(Free)E + p*V (eV/cell)   -32246.8499
Target enthalpy (eV/cell)   -32245.7482

cgvc: Finished line minimization    3.  Mean atomic displacement =    0.0443

                     ====================================
                        Begin CG opt. move =      9
                     ====================================

outcell: Unit cell vectors (Ang):
       20.000000    0.000000    0.000000
        0.000000   20.000000    0.000000
        0.000000    0.000000   20.000000

outcell: Cell vector modules (Ang)   :   20.000000   20.000000   20.000000
outcell: Cell angles (23,13,12) (deg):     90.0000     90.0000     90.0000
outcell: Cell volume (Ang**3)        :   8000.0000
<dSpData1D:S at geom step 9
  <sparsity:sparsity for geom step 9
    nrows_g=152 nrows=152 sparsity=.8441 nnzs=19502, refcount: 7>
  <dData1D:(new from dSpData1D) n=19502, refcount: 1>
refcount: 1>
new_DM -- step:    10
Re-using DM from previous geometries...
Number of DMs in history: 1
 DM extrapolation coefficients: 
1   1.00000
New DM after history re-use:
<dSpData2D:SpM extrapolated using coords
  <sparsity:sparsity for geom step 9
    nrows_g=152 nrows=152 sparsity=.8441 nnzs=19502, refcount: 9>
  <dData2D:(temp array for extrapolation) n=19502 m=1, refcount: 1>
refcount: 1>
No. of atoms with KB's overlaping orbs in proc 0. Max # of overlaps:       8      93

InitMesh: MESH = 216 x 216 x 216 = 10077696
InitMesh: Mesh cutoff (required, used) =   300.000   322.366 Ry
New grid distribution [1]: sub = 2

        iscf     Eharris(eV)        E_KS(eV)     FreeEng(eV)     dDmax    Ef(eV) dHmax(eV)
   scf:    1   -32245.916927   -32245.751412   -32245.753787  0.159167 -4.849720  0.489998
   scf:    2   -32238.106975   -32243.291173   -32243.291195  2.082018 -4.928465  6.898316
   scf:    3   -32246.154450   -32245.756036   -32245.758273  1.803677 -4.855830  0.419356
   scf:    4   -32245.714791   -32245.754880   -32245.757228  0.259737 -4.850097  0.436216
   scf:    5   -32245.766458   -32245.765571   -32245.767874  0.130101 -4.852966  0.008902
   scf:    6   -32245.765583   -32245.765577   -32245.767877  0.000692 -4.853020  0.006814
   scf:    7   -32245.765570   -32245.765580   -32245.767876  0.004628 -4.853226  0.008559
   scf:    8   -32245.765578   -32245.765582   -32245.767880  0.003074 -4.853129  0.001546
   scf:    9   -32245.765583   -32245.765583   -32245.767881  0.000319 -4.853159  0.000441
   scf:   10   -32245.765583   -32245.765583   -32245.767881  0.000059 -4.853178  0.000209

SCF Convergence by DM+H criterion
max |DM_out - DM_in|         :     0.0000592177
max |H_out - H_in|      (eV) :     0.0002094644
SCF cycle converged after 10 iterations

Using DM_out to compute the final energy and forces
No. of atoms with KB's overlaping orbs in proc 0. Max # of overlaps:       8      93

siesta: E_KS(eV) =           -32245.7656

siesta: Atomic forces (eV/Ang):
----------------------------------------
   Tot   -0.001404   -0.001404   -0.001405
----------------------------------------
   Max    0.182078
   Res    0.100799    sqrt( Sum f_i^2 / 3N )
----------------------------------------
   Max    0.182078    constrained

Stress tensor Voigt[x,y,z,yz,xz,xy] (kbar):        0.25        0.25        0.25        0.06        0.06        0.06
(Free)E + p*V (eV/cell)   -32247.0377
Target enthalpy (eV/cell)   -32245.7679

                     ====================================
                        Begin CG opt. move =     10
                     ====================================

outcell: Unit cell vectors (Ang):
       20.000000    0.000000    0.000000
        0.000000   20.000000    0.000000
        0.000000    0.000000   20.000000

outcell: Cell vector modules (Ang)   :   20.000000   20.000000   20.000000
outcell: Cell angles (23,13,12) (deg):     90.0000     90.0000     90.0000
outcell: Cell volume (Ang**3)        :   8000.0000
<dSpData1D:S at geom step 10
  <sparsity:sparsity for geom step 10
    nrows_g=152 nrows=152 sparsity=.8470 nnzs=19570, refcount: 7>
  <dData1D:(new from dSpData1D) n=19570, refcount: 1>
refcount: 1>
new_DM -- step:    11
Re-using DM from previous geometries...
Number of DMs in history: 1
 DM extrapolation coefficients: 
1   1.00000
New DM after history re-use:
<dSpData2D:SpM extrapolated using coords
  <sparsity:sparsity for geom step 10
    nrows_g=152 nrows=152 sparsity=.8470 nnzs=19570, refcount: 9>
  <dData2D:(temp array for extrapolation) n=19570 m=1, refcount: 1>
refcount: 1>
No. of atoms with KB's overlaping orbs in proc 0. Max # of overlaps:       8      93

InitMesh: MESH = 216 x 216 x 216 = 10077696
InitMesh: Mesh cutoff (required, used) =   300.000   322.366 Ry
New grid distribution [1]: sub = 2

        iscf     Eharris(eV)        E_KS(eV)     FreeEng(eV)     dDmax    Ef(eV) dHmax(eV)
   scf:    1   -32246.023740   -32245.760163   -32245.761704  0.695429 -4.835379  0.815174
   scf:    2   -32235.901293   -32242.655589   -32242.655590  2.333013 -4.967742  8.009241
   scf:    3   -32246.663437   -32245.732337   -32245.733633  1.746145 -4.849926  1.110010
   scf:    4   -32244.944050   -32245.586541   -32245.587991  0.930031 -4.826635  1.958299
   scf:    5   -32245.807175   -32245.799223   -32245.800685  0.596041 -4.841279  0.004872
   scf:    6   -32245.799181   -32245.799213   -32245.800676  0.006168 -4.841111  0.015916
   scf:    7   -32245.799233   -32245.799225   -32245.800687  0.002613 -4.841172  0.007252
   scf:    8   -32245.799231   -32245.799228   -32245.800689  0.000349 -4.841240  0.005907
   scf:    9   -32245.799211   -32245.799227   -32245.800685  0.004779 -4.841528  0.010509
   scf:   10   -32245.799228   -32245.799231   -32245.800692  0.003480 -4.841372  0.001299
   scf:   11   -32245.799232   -32245.799232   -32245.800692  0.000279 -4.841410  0.000324
   scf:   12   -32245.799232   -32245.799232   -32245.800692  0.000019 -4.841434  0.000228

SCF Convergence by DM+H criterion
max |DM_out - DM_in|         :     0.0000186550
max |H_out - H_in|      (eV) :     0.0002280788
SCF cycle converged after 12 iterations

Using DM_out to compute the final energy and forces
No. of atoms with KB's overlaping orbs in proc 0. Max # of overlaps:       8      93

siesta: E_KS(eV) =           -32245.7992

siesta: Atomic forces (eV/Ang):
----------------------------------------
   Tot   -0.000785   -0.000785   -0.000785
----------------------------------------
   Max    0.205548
   Res    0.123141    sqrt( Sum f_i^2 / 3N )
----------------------------------------
   Max    0.205548    constrained

Stress tensor Voigt[x,y,z,yz,xz,xy] (kbar):        0.31        0.31        0.31        0.04        0.04        0.04
(Free)E + p*V (eV/cell)   -32247.3245
Target enthalpy (eV/cell)   -32245.8007

                     ====================================
                        Begin CG opt. move =     11
                     ====================================

outcell: Unit cell vectors (Ang):
       20.000000    0.000000    0.000000
        0.000000   20.000000    0.000000
        0.000000    0.000000   20.000000

outcell: Cell vector modules (Ang)   :   20.000000   20.000000   20.000000
outcell: Cell angles (23,13,12) (deg):     90.0000     90.0000     90.0000
outcell: Cell volume (Ang**3)        :   8000.0000
<dSpData1D:S at geom step 11
  <sparsity:sparsity for geom step 11
    nrows_g=152 nrows=152 sparsity=.8492 nnzs=19620, refcount: 7>
  <dData1D:(new from dSpData1D) n=19620, refcount: 1>
refcount: 1>
new_DM -- step:    12
Re-using DM from previous geometries...
Number of DMs in history: 1
 DM extrapolation coefficients: 
1   1.00000
New DM after history re-use:
<dSpData2D:SpM extrapolated using coords
  <sparsity:sparsity for geom step 11
    nrows_g=152 nrows=152 sparsity=.8492 nnzs=19620, refcount: 9>
  <dData2D:(temp array for extrapolation) n=19620 m=1, refcount: 1>
refcount: 1>
No. of atoms with KB's overlaping orbs in proc 0. Max # of overlaps:       8      93

InitMesh: MESH = 216 x 216 x 216 = 10077696
InitMesh: Mesh cutoff (required, used) =   300.000   322.366 Ry
New grid distribution [1]: sub = 2

        iscf     Eharris(eV)        E_KS(eV)     FreeEng(eV)     dDmax    Ef(eV) dHmax(eV)
   scf:    1   -32246.144517   -32245.743395   -32245.744094  0.455092 -4.811105  1.399440
   scf:    2   -32233.210248   -32241.945196   -32241.945196  2.555607 -4.996516  9.316768
   scf:    3   -32247.308148   -32245.533579   -32245.533959  1.390845 -4.846924  2.464298
   scf:    4   -32238.910656   -32243.994552   -32243.994721  2.467970 -4.763089  5.872814
   scf:    5   -32246.028515   -32245.856731   -32245.857378  1.691441 -4.821489  0.129577
   scf:    6   -32245.858007   -32245.857671   -32245.858315  0.032562 -4.821888  0.024845
   scf:    7   -32245.857714   -32245.857710   -32245.858353  0.007662 -4.822152  0.001347
   scf:    8   -32245.857707   -32245.857709   -32245.858353  0.001735 -4.822210  0.005036
   scf:    9   -32245.857711   -32245.857710   -32245.858354  0.000800 -4.822237  0.002348
   scf:   10   -32245.857711   -32245.857711   -32245.858354  0.000079 -4.822335  0.002016
   scf:   11   -32245.857708   -32245.857711   -32245.858353  0.001919 -4.822663  0.004801
   scf:   12   -32245.857711   -32245.857712   -32245.858355  0.001615 -4.822477  0.000826
   scf:   13   -32245.857712   -32245.857712   -32245.858355  0.000185 -4.822535  0.000208
   scf:   14   -32245.857712   -32245.857712   -32245.858355  0.000027 -4.822568  0.000237

SCF Convergence by DM+H criterion
max |DM_out - DM_in|         :     0.0000274667
max |H_out - H_in|      (eV) :     0.0002372352
SCF cycle converged after 14 iterations

Using DM_out to compute the final energy and forces
No. of atoms with KB's overlaping orbs in proc 0. Max # of overlaps:       8      93

siesta: E_KS(eV) =           -32245.8577

siesta: Atomic forces (eV/Ang):
----------------------------------------
   Tot    0.000096    0.000095    0.000095
----------------------------------------
   Max    0.275897
   Res    0.163281    sqrt( Sum f_i^2 / 3N )
----------------------------------------
   Max    0.275897    constrained

Stress tensor Voigt[x,y,z,yz,xz,xy] (kbar):        0.39        0.39        0.39        0.02        0.02        0.02
(Free)E + p*V (eV/cell)   -32247.7986
Target enthalpy (eV/cell)   -32245.8584

                     ====================================
                        Begin CG opt. move =     12
                     ====================================

outcell: Unit cell vectors (Ang):
       20.000000    0.000000    0.000000
        0.000000   20.000000    0.000000
        0.000000    0.000000   20.000000

outcell: Cell vector modules (Ang)   :   20.000000   20.000000   20.000000
outcell: Cell angles (23,13,12) (deg):     90.0000     90.0000     90.0000
outcell: Cell volume (Ang**3)        :   8000.0000
<dSpData1D:S at geom step 12
  <sparsity:sparsity for geom step 12
    nrows_g=152 nrows=152 sparsity=.8702 nnzs=20106, refcount: 7>
  <dData1D:(new from dSpData1D) n=20106, refcount: 1>
refcount: 1>
new_DM -- step:    13
Re-using DM from previous geometries...
Number of DMs in history: 1
 DM extrapolation coefficients: 
1   1.00000
New DM after history re-use:
<dSpData2D:SpM extrapolated using coords
  <sparsity:sparsity for geom step 12
    nrows_g=152 nrows=152 sparsity=.8702 nnzs=20106, refcount: 9>
  <dData2D:(temp array for extrapolation) n=20106 m=1, refcount: 1>
refcount: 1>
No. of atoms with KB's overlaping orbs in proc 0. Max # of overlaps:       8      93

InitMesh: MESH = 216 x 216 x 216 = 10077696
InitMesh: Mesh cutoff (required, used) =   300.000   322.366 Ry
New grid distribution [1]: sub = 2

        iscf     Eharris(eV)        E_KS(eV)     FreeEng(eV)     dDmax    Ef(eV) dHmax(eV)
   scf:    1   -32246.273329   -32245.752208   -32245.752445  0.574988 -4.783765  1.787767
   scf:    2   -32231.743924   -32241.595010   -32241.595010  2.654847 -4.892631  9.971474
   scf:    3   -32247.585343   -32245.500111   -32245.500199  1.264744 -4.836511  2.894839
   scf:    4   -32237.649540   -32243.729291   -32243.729320  2.704523 -4.721385  6.483127
   scf:    5   -32246.168418   -32245.934814   -32245.935027  1.806323 -4.800171  0.151196
   scf:    6   -32245.936579   -32245.936152   -32245.936364  0.039502 -4.800099  0.025380
   scf:    7   -32245.936203   -32245.936191   -32245.936403  0.006558 -4.800184  0.003651
   scf:    8   -32245.936191   -32245.936192   -32245.936404  0.001363 -4.800225  0.005846
   scf:    9   -32245.936193   -32245.936193   -32245.936405  0.001675 -4.800241  0.001179
   scf:   10   -32245.936194   -32245.936194   -32245.936406  0.000806 -4.800308  0.002628
   scf:   11   -32245.936194   -32245.936194   -32245.936406  0.000695 -4.800342  0.000788
   scf:   12   -32245.936194   -32245.936194   -32245.936406  0.000457 -4.800412  0.001572
   scf:   13   -32245.936194   -32245.936194   -32245.936406  0.000560 -4.800443  0.000572
   scf:   14   -32245.936195   -32245.936195   -32245.936407  0.000347 -4.800492  0.000732
   scf:   15   -32245.936195   -32245.936195   -32245.936407  0.000265 -4.800530  0.000369
   scf:   16   -32245.936195   -32245.936195   -32245.936407  0.000209 -4.800558  0.000466
   scf:   17   -32245.936195   -32245.936195   -32245.936407  0.000183 -4.800585  0.000265
   scf:   18   -32245.936195   -32245.936195   -32245.936407  0.000116 -4.800603  0.000223
   scf:   19   -32245.936195   -32245.936195   -32245.936407  0.000105 -4.800623  0.000196
   scf:   20   -32245.936195   -32245.936195   -32245.936407  0.000086 -4.800631  0.000148

SCF Convergence by DM+H criterion
max |DM_out - DM_in|         :     0.0000857090
max |H_out - H_in|      (eV) :     0.0001476839
SCF cycle converged after 20 iterations

Using DM_out to compute the final energy and forces
No. of atoms with KB's overlaping orbs in proc 0. Max # of overlaps:       8      93

siesta: E_KS(eV) =           -32245.9362

siesta: Atomic forces (eV/Ang):
----------------------------------------
   Tot    0.001430    0.001431    0.001430
----------------------------------------
   Max    0.384732
   Res    0.211684    sqrt( Sum f_i^2 / 3N )
----------------------------------------
   Max    0.384732    constrained

Stress tensor Voigt[x,y,z,yz,xz,xy] (kbar):        0.48        0.48        0.48       -0.01       -0.01       -0.01
(Free)E + p*V (eV/cell)   -32248.3467
Target enthalpy (eV/cell)   -32245.9364

                     ====================================
                        Begin CG opt. move =     13
                     ====================================

outcell: Unit cell vectors (Ang):
       20.000000    0.000000    0.000000
        0.000000   20.000000    0.000000
        0.000000    0.000000   20.000000

outcell: Cell vector modules (Ang)   :   20.000000   20.000000   20.000000
outcell: Cell angles (23,13,12) (deg):     90.0000     90.0000     90.0000
outcell: Cell volume (Ang**3)        :   8000.0000
<dSpData1D:S at geom step 13
  <sparsity:sparsity for geom step 13
    nrows_g=152 nrows=152 sparsity=.8432 nnzs=19482, refcount: 7>
  <dData1D:(new from dSpData1D) n=19482, refcount: 1>
refcount: 1>
new_DM -- step:    14
Re-using DM from previous geometries...
Number of DMs in history: 1
 DM extrapolation coefficients: 
1   1.00000
New DM after history re-use:
<dSpData2D:SpM extrapolated using coords
  <sparsity:sparsity for geom step 13
    nrows_g=152 nrows=152 sparsity=.8432 nnzs=19482, refcount: 9>
  <dData2D:(temp array for extrapolation) n=19482 m=1, refcount: 1>
refcount: 1>
No. of atoms with KB's overlaping orbs in proc 0. Max # of overlaps:       8      83

InitMesh: MESH = 216 x 216 x 216 = 10077696
InitMesh: Mesh cutoff (required, used) =   300.000   322.366 Ry
New grid distribution [1]: sub = 2

        iscf     Eharris(eV)        E_KS(eV)     FreeEng(eV)     dDmax    Ef(eV) dHmax(eV)
   scf:    1   -32246.464952   -32245.832159   -32245.832233  0.587812 -4.759817  1.866261
   scf:    2   -32231.961063   -32241.718295   -32241.718295  2.651583 -4.855004  9.909578
   scf:    3   -32247.671979   -32245.722881   -32245.722908  1.390299 -4.815368  2.453164
   scf:    4   -32241.590486   -32244.879733   -32244.879766  2.050684 -4.721402  4.701498
   scf:    5   -32246.081956   -32246.028249   -32246.028310  1.357942 -4.782358  0.063612
   scf:    6   -32246.028027   -32246.028389   -32246.028452  0.029764 -4.779618  0.041515
   scf:    7   -32246.028518   -32246.028476   -32246.028538  0.008426 -4.779782  0.013714
   scf:    8   -32246.028489   -32246.028483   -32246.028545  0.000335 -4.779685  0.009291
   scf:    9   -32246.028458   -32246.028481   -32246.028543  0.005439 -4.779964  0.011902
   scf:   10   -32246.028487   -32246.028488   -32246.028550  0.003636 -4.779851  0.001660
   scf:   11   -32246.028489   -32246.028488   -32246.028551  0.000284 -4.779912  0.000494
   scf:   12   -32246.028489   -32246.028488   -32246.028551  0.000037 -4.779963  0.000387

SCF Convergence by DM+H criterion
max |DM_out - DM_in|         :     0.0000371647
max |H_out - H_in|      (eV) :     0.0003871641
SCF cycle converged after 12 iterations

Using DM_out to compute the final energy and forces
No. of atoms with KB's overlaping orbs in proc 0. Max # of overlaps:       8      83

siesta: E_KS(eV) =           -32246.0285

siesta: Atomic forces (eV/Ang):
----------------------------------------
   Tot   -0.001076   -0.001075   -0.001076
----------------------------------------
   Max    0.483662
   Res    0.260225    sqrt( Sum f_i^2 / 3N )
----------------------------------------
   Max    0.483662    constrained

Stress tensor Voigt[x,y,z,yz,xz,xy] (kbar):        0.57        0.57        0.57       -0.03       -0.03       -0.03
(Free)E + p*V (eV/cell)   -32248.8985
Target enthalpy (eV/cell)   -32246.0286

                     ====================================
                        Begin CG opt. move =     14
                     ====================================

outcell: Unit cell vectors (Ang):
       20.000000    0.000000    0.000000
        0.000000   20.000000    0.000000
        0.000000    0.000000   20.000000

outcell: Cell vector modules (Ang)   :   20.000000   20.000000   20.000000
outcell: Cell angles (23,13,12) (deg):     90.0000     90.0000     90.0000
outcell: Cell volume (Ang**3)        :   8000.0000
<dSpData1D:S at geom step 14
  <sparsity:sparsity for geom step 14
    nrows_g=152 nrows=152 sparsity=.8528 nnzs=19702, refcount: 7>
  <dData1D:(new from dSpData1D) n=19702, refcount: 1>
refcount: 1>
new_DM -- step:    15
Re-using DM from previous geometries...
Number of DMs in history: 1
 DM extrapolation coefficients: 
1   1.00000
New DM after history re-use:
<dSpData2D:SpM extrapolated using coords
  <sparsity:sparsity for geom step 14
    nrows_g=152 nrows=152 sparsity=.8528 nnzs=19702, refcount: 9>
  <dData2D:(temp array for extrapolation) n=19702 m=1, refcount: 1>
refcount: 1>
No. of atoms with KB's overlaping orbs in proc 0. Max # of overlaps:       8      88

InitMesh: MESH = 216 x 216 x 216 = 10077696
InitMesh: Mesh cutoff (required, used) =   300.000   322.366 Ry
New grid distribution [1]: sub = 2

        iscf     Eharris(eV)        E_KS(eV)     FreeEng(eV)     dDmax    Ef(eV) dHmax(eV)
   scf:    1   -32246.700010   -32245.958151   -32245.958172  0.565310 -4.739904  1.828461
   scf:    2   -32233.013702   -32242.099321   -32242.099321  2.591641 -4.963536  9.526818
   scf:    3   -32247.605656   -32245.975465   -32245.975474  1.543473 -4.791720  1.842659
   scf:    4   -32244.709691   -32245.796707   -32245.796726  1.255283 -4.726869  2.603140
   scf:    5   -32246.155773   -32246.142134   -32246.142150  0.751939 -4.763643  0.064257
   scf:    6   -32246.142177   -32246.142314   -32246.142331  0.024426 -4.761423  0.024043
   scf:    7   -32246.142357   -32246.142340   -32246.142356  0.003379 -4.761419  0.011383
   scf:    8   -32246.142352   -32246.142347   -32246.142363  0.000576 -4.761354  0.005243
   scf:    9   -32246.142347   -32246.142348   -32246.142365  0.001703 -4.761476  0.002863
   scf:   10   -32246.142348   -32246.142349   -32246.142365  0.000838 -4.761469  0.000799
   scf:   11   -32246.142349   -32246.142349   -32246.142365  0.000118 -4.761500  0.000324
   scf:   12   -32246.142349   -32246.142349   -32246.142365  0.000074 -4.761525  0.000359

SCF Convergence by DM+H criterion
max |DM_out - DM_in|         :     0.0000741791
max |H_out - H_in|      (eV) :     0.0003589312
SCF cycle converged after 12 iterations

Using DM_out to compute the final energy and forces
No. of atoms with KB's overlaping orbs in proc 0. Max # of overlaps:       8      88

siesta: E_KS(eV) =           -32246.1423

siesta: Atomic forces (eV/Ang):
----------------------------------------
   Tot   -0.000600   -0.000603   -0.000600
----------------------------------------
   Max    0.592922
   Res    0.316086    sqrt( Sum f_i^2 / 3N )
----------------------------------------
   Max    0.592922    constrained

Stress tensor Voigt[x,y,z,yz,xz,xy] (kbar):        0.68        0.68        0.68       -0.04       -0.04       -0.04
(Free)E + p*V (eV/cell)   -32249.5308
Target enthalpy (eV/cell)   -32246.1424

                     ====================================
                        Begin CG opt. move =     15
                     ====================================

outcell: Unit cell vectors (Ang):
       20.000000    0.000000    0.000000
        0.000000   20.000000    0.000000
        0.000000    0.000000   20.000000

outcell: Cell vector modules (Ang)   :   20.000000   20.000000   20.000000
outcell: Cell angles (23,13,12) (deg):     90.0000     90.0000     90.0000
outcell: Cell volume (Ang**3)        :   8000.0000
<dSpData1D:S at geom step 15
  <sparsity:sparsity for geom step 15
    nrows_g=152 nrows=152 sparsity=.8534 nnzs=19718, refcount: 7>
  <dData1D:(new from dSpData1D) n=19718, refcount: 1>
refcount: 1>
new_DM -- step:    16
Re-using DM from previous geometries...
Number of DMs in history: 1
 DM extrapolation coefficients: 
1   1.00000
New DM after history re-use:
<dSpData2D:SpM extrapolated using coords
  <sparsity:sparsity for geom step 15
    nrows_g=152 nrows=152 sparsity=.8534 nnzs=19718, refcount: 9>
  <dData2D:(temp array for extrapolation) n=19718 m=1, refcount: 1>
refcount: 1>
No. of atoms with KB's overlaping orbs in proc 0. Max # of overlaps:       8      88

InitMesh: MESH = 216 x 216 x 216 = 10077696
InitMesh: Mesh cutoff (required, used) =   300.000   322.366 Ry
New grid distribution [1]: sub = 2

        iscf     Eharris(eV)        E_KS(eV)     FreeEng(eV)     dDmax    Ef(eV) dHmax(eV)
   scf:    1   -32246.944660   -32246.129275   -32246.129281  0.520682 -4.725422  1.711511
   scf:    2   -32234.857654   -32242.743945   -32242.743945  2.455798 -4.906832  8.842793
   scf:    3   -32247.429949   -32246.214144   -32246.214147  1.640467 -4.769062  1.239296
   scf:    4   -32245.982289   -32246.221106   -32246.221111  0.650815 -4.730039  1.143493
   scf:    5   -32246.291079   -32246.286004   -32246.286008  0.317792 -4.747457  0.017341
   scf:    6   -32246.286011   -32246.286024   -32246.286028  0.008065 -4.746423  0.015858
   scf:    7   -32246.286037   -32246.286034   -32246.286038  0.003330 -4.746509  0.004281
   scf:    8   -32246.286036   -32246.286036   -32246.286040  0.002052 -4.746362  0.005984
   scf:    9   -32246.286037   -32246.286038   -32246.286042  0.001579 -4.746433  0.001876
   scf:   10   -32246.286038   -32246.286038   -32246.286042  0.000986 -4.746407  0.002796
   scf:   11   -32246.286039   -32246.286039   -32246.286042  0.000580 -4.746437  0.001171
   scf:   12   -32246.286039   -32246.286039   -32246.286043  0.000420 -4.746446  0.001523
   scf:   13   -32246.286039   -32246.286039   -32246.286043  0.000488 -4.746475  0.000782
   scf:   14   -32246.286039   -32246.286039   -32246.286043  0.000390 -4.746477  0.000824
   scf:   15   -32246.286039   -32246.286039   -32246.286043  0.000139 -4.746491  0.000421
   scf:   16   -32246.286039   -32246.286039   -32246.286043  0.000105 -4.746502  0.000463
   scf:   17   -32246.286039   -32246.286039   -32246.286043  0.000219 -4.746517  0.000573
   scf:   18   -32246.286039   -32246.286039   -32246.286043  0.000169 -4.746514  0.000218
   scf:   19   -32246.286039   -32246.286039   -32246.286043  0.000033 -4.746520  0.000137

SCF Convergence by DM+H criterion
max |DM_out - DM_in|         :     0.0000329357
max |H_out - H_in|      (eV) :     0.0001370406
SCF cycle converged after 19 iterations

Using DM_out to compute the final energy and forces
No. of atoms with KB's overlaping orbs in proc 0. Max # of overlaps:       8      88

siesta: E_KS(eV) =           -32246.2860

siesta: Atomic forces (eV/Ang):
----------------------------------------
   Tot    0.000108    0.000109    0.000109
----------------------------------------
   Max    0.703128
   Res    0.374246    sqrt( Sum f_i^2 / 3N )
----------------------------------------
   Max    0.703128    constrained

Stress tensor Voigt[x,y,z,yz,xz,xy] (kbar):        0.78        0.78        0.78       -0.06       -0.06       -0.06
(Free)E + p*V (eV/cell)   -32250.1719
Target enthalpy (eV/cell)   -32246.2860

outcoor: Final (unrelaxed) atomic coordinates (Ang):        
    0.24518663    0.24518688    0.24518659   1       1  Au
    0.02352003    2.19514156    2.19513947   1       2  Au
    2.19514155    0.02352089    2.19514046   1       3  Au
    2.19514061    2.19514053    0.02352204   1       4  Au
    3.51345913    3.51345925    3.51345916   1       5  Au
    3.99117333    0.17582829    0.17582878   1       6  Au
    0.17582839    3.99117314    0.17582840   1       7  Au
    0.17582787    0.17582821    3.99117454   1       8  Au

coxmol: Writing XMOL coordinates into file AuRel.xyz                                                                                                                                                                                                                           

siesta: Program's energy decomposition (eV):
siesta: Ebs     =     -5322.471149
siesta: Eions   =     40622.498726
siesta: Ena     =      4096.273024
siesta: Ekin    =      9267.618627
siesta: Enl     =       545.714648
siesta: Eso     =         0.000000
siesta: Edftu   =         0.000000
siesta: DEna    =       120.778645
siesta: DUscf   =         2.860604
siesta: DUext   =         0.000000
siesta: Ex      =     -5336.244859
siesta: Ec      =      -320.788002
siesta: Exc     =     -5657.032860
siesta: EbV     =         0.000000
siesta: eta*DQ  =         0.000000
siesta: Emadel  =         0.000000
siesta: Emeta   =         0.000000
siesta: Emolmec =         0.000000
siesta: Ekinion =         0.000000
siesta: Eharris =    -32246.286039
siesta: Etot    =    -32246.286039
siesta: FreeEng =    -32246.286043

siesta: Final energy (eV):
siesta:  Band Struct. =   -5322.471149
siesta:       Kinetic =    9267.618627
siesta:       Hartree =   42999.419097
siesta:         Edftu =       0.000000
siesta:       Eso     =       0.000000
siesta:    Ext. field =       0.000000
siesta:         Exch. =   -5336.244859
siesta:         Corr. =    -320.788002
siesta:     Bulk bias =       0.000000
siesta:   Exch.-corr. =   -5657.032860
siesta:  Ion-electron =  -96539.662405
siesta:       Ion-ion =   17683.371502
siesta:       Ekinion =       0.000000
siesta: D3 dispersion =       0.000000
siesta:         Total =  -32246.286039
siesta:         Fermi =      -4.746520

siesta: Atomic forces (eV/Ang):
siesta:      1   -0.046616   -0.046618   -0.046615
siesta:      2    0.703127   -0.077613   -0.077583
siesta:      3   -0.077611    0.703128   -0.077588
siesta:      4   -0.077595   -0.077596    0.703126
siesta:      5   -0.572967   -0.572968   -0.572968
siesta:      6   -0.409564    0.240664    0.240661
siesta:      7    0.240663   -0.409562    0.240659
siesta:      8    0.240671    0.240672   -0.409583
siesta: ----------------------------------------
siesta:    Tot    0.000108    0.000109    0.000109

siesta: Stress tensor (static) (eV/Ang**3):
siesta:     0.000486   -0.000035   -0.000035
siesta:    -0.000035    0.000486   -0.000035
siesta:    -0.000035   -0.000035    0.000486

siesta: Cell volume =       8000.000000 Ang**3

siesta: Pressure (static):
siesta:                Solid            Molecule  Units
siesta:          -0.00000529          0.00000002  Ry/Bohr**3
siesta:          -0.00048573          0.00000163  eV/Ang**3
siesta:          -0.77822356          0.00261079  kBar
(Free)E+ p_basis*V_orbitals  =      -32236.815223
(Free)Eharris+ p_basis*V_orbitals  =      -32236.815223

siesta: Electric dipole (a.u.)  =   -0.407810   -0.407810   -0.407813
siesta: Electric dipole (Debye) =   -1.036550   -1.036550   -1.036557

cite: Please indicate the Siesta version in published work: 5.2.2
cite: This calculation has made use of features in the following articles
cite: which we encourage you to cite in published work.
cite: (Please see "AuRel.bib" for a BibTeX file.)
        Primary SIESTA paper
          DOI: www.doi.org/10.1088/0953-8984/14/11/302
        PSML pseudopotential format
          DOI: www.doi.org/10.1016/j.cpc.2018.02.011


timer: Elapsed wall time (sec) =    2023.468
timer: CPU execution times (sec):

Routine            Calls   Time/call    Tot.time        %
siesta                 1    2061.435    2061.435   100.00
Setup                  1       0.157       0.157     0.01
bands                  1       0.000       0.000     0.00
KSV_init               1       0.000       0.000     0.00
IterGeom              16     128.829    2061.259    99.99
geom_init             16      11.493     183.885     8.92
state_init            16       0.043       0.688     0.03
hsparse               16       0.002       0.026     0.00
overlap               16       0.038       0.614     0.03
Setup_H0              16       5.985      95.753     4.64
naefs                 32       0.000       0.003     0.00
dnaefs                32       0.000       0.001     0.00
MolMec                32       0.000       0.000     0.00
kinefsm               32       0.027       0.879     0.04
nlefsm                32       0.099       3.166     0.15
DHSCF_Init            16       5.778      92.445     4.48
DHSCF1                16       0.169       2.707     0.13
InitMesh              16       0.169       2.706     0.13
INITMESH              16       0.000       0.000     0.00
DHSCF2                16       5.609      89.738     4.35
REMESH                16       0.332       5.316     0.26
REORD                914       0.032      29.085     1.41
PHION                 16       3.097      49.553     2.40
COMM_BSC            1396       0.026      35.646     1.73
POISON               353       1.520     536.516    26.03
fft                  706       0.622     439.078    21.30
setup_H              321       5.602    1798.401    87.24
DHSCF                337       5.803    1955.521    94.86
DHSCF3               337       5.596    1885.773    91.48
rhoofd               337       0.712     240.021    11.64
XC                   337       2.451     825.835    40.06
GXC-CellXC           337       2.345     790.106    38.33
gridxc@cellXC        337       2.345     790.099    38.33
vmat                 337       0.476     160.558     7.79
IterSCF              305       5.635    1718.631    83.37
compute_dm           305       0.024       7.292     0.35
diagon               305       0.024       7.250     0.35
r-eigvec             305       0.013       3.944     0.19
r-buildHS            305       0.000       0.052     0.00
rdiag                305       0.013       3.890     0.19
rdiag1               305       0.000       0.133     0.01
rdiag2               305       0.001       0.409     0.02
rdiag3               305       0.008       2.384     0.12
rdiag4               305       0.003       0.931     0.05
r-buildD             305       0.011       3.243     0.16
MIXER                289       0.000       0.091     0.00
PostSCF               16       9.913     158.609     7.69
FINAL_HF              16       9.913     158.608     7.69
DHSCF4                16       4.359      69.747     3.38
dfscf                 16       3.558      56.922     2.76
overfsm               16       0.012       0.186     0.01
writeHSX              16       0.001       0.015     0.00
state_analysis        16       0.001       0.022     0.00
siesta_move           16       0.006       0.096     0.00
Analysis               1       0.006       0.006     0.00
optical                1       0.000       0.000     0.00
  

>> End of run:   1-JUL-2025  20:45:29
Job completed
Job completed
