Executable      : siesta
Version         : 5.2.2
Architecture    : x86_64
Compiler version: GNU-13.3.0
Compiler flags  : -march=nocona -mtune=haswell -ftree-vectorize -fPIC -fstack-protector-strong -fno-plt -O2 -ffunction-sections -pipe -isystem <prefix>/include -I<prefix>/_build_env/include -fdebug-prefix-map=<prefix>/work=/usr/local/src/conda/siesta-5.2.2 -fdebug-prefix-map=<prefix>=/usr/local/src/conda-prefix -I<prefix>/lib -fallow-argument-mismatch -O3
Parallelisations: none
NetCDF support
NetCDF-4 support
Lua support
DFT-D3 support

Runtime information:
* Directory : /mnt/c/Users/jfarr/SSN/ProjectSim/Au_particles/Au_7
* Running in serial mode.
>> Start of run:   1-JUL-2025  19:14:09

                           *********************** 
                           *  WELCOME TO SIESTA  * 
                           *********************** 

 NOTE: Siesta V5 introduces some new defaults for basis-set generation
 NOTE: which might lead to slightly different numerical results.
 NOTE: Please see the manual for full details and compatibility measures.


reinit: Reading from file optimization.fdf

reinit: -----------------------------------------------------------------------
reinit: System Name: 
reinit: -----------------------------------------------------------------------
reinit: System Label: AuRel
reinit: -----------------------------------------------------------------------

initatom: Reading input for the pseudopotentials and atomic orbitals ----------
Species number:   1 Atomic number:   79 Label: Au

Ground state valence configuration (from tables):   6s01  6p00  5d10  5f00

---- Processing specs for species: Au
Reading pseudopotential information in PSML from:
  Au.psml
PSML file version: 1.1
Using libxc ids:  101 130
GGA--PBE XC_GGA_X_PBE--XC_GGA_C_PBE pb
PSML uuid: fa497b30-be45-11e7-41fb-494093d7a025
Semicore shell(s) with  8 electrons included in the valence for Au

---- Pseudopotential check for Au

Pseudized shells:
5s( 2.00) rc: 1.46
5p( 6.00) rc: 1.56
5d(10.00) rc: 1.56
5f( 0.00) rc: 1.60
Valence configuration for ps generation: 5s:5p:5d:6s: Total charge:  19.000000
Semicore shell(s): 5s 5p
Fallback to non-perturbative polarization scheme for Au
Please see the manual if this is not desired in principle
For Au, standard SIESTA heuristics set lmxkb to 3
 (one more than the basis l, including polarization orbitals).
Use PS.lmax or PS.KBprojectors blocks to override.

<basis_specs>
===============================================================================
Au                   Z=  79    Mass=  196.97        Charge= 0.17977+309
Lmxo=2 Lmxkb= 3    BasisType=split      Semic=T
L=0  Nsemic=1  Cnfigmx=6
          i=1  nzeta=1  polorb=0  (5s)  (semicore shell)
            splnorm:   0.15000    
               vcte:    40.000    
               rinn:  -0.90000    
               qcoe:    0.0000    
               qyuk:    0.0000    
               qwid:   0.10000E-01
                rcs:    0.0000    
            lambdas:    1.0000    
          i=2  nzeta=2  polorb=0  (6s)  (to be polarized non-perturbatively)
            splnorm:   0.15000    
               vcte:    40.000    
               rinn:  -0.90000    
               qcoe:    0.0000    
               qyuk:    0.0000    
               qwid:   0.10000E-01
                rcs:    0.0000      0.0000    
            lambdas:    1.0000      1.0000    
L=1  Nsemic=1  Cnfigmx=6
          i=1  nzeta=1  polorb=0  (5p)  (semicore shell)
            splnorm:   0.15000    
               vcte:    40.000    
               rinn:  -0.90000    
               qcoe:    0.0000    
               qyuk:    0.0000    
               qwid:   0.10000E-01
                rcs:    0.0000    
            lambdas:    1.0000    
          i=2  nzeta=1  polorb=0  (6p)  (non-perturbative polarization shell)
            splnorm:   0.15000    
               vcte:    40.000    
               rinn:  -0.90000    
               qcoe:    0.0000    
               qyuk:   0.49407-323
               qwid:   0.44466-322
                rcs:    0.0000    
            lambdas:    1.0000    
L=2  Nsemic=0  Cnfigmx=5
          i=1  nzeta=2  polorb=0  (5d)
            splnorm:   0.15000    
               vcte:    40.000    
               rinn:  -0.90000    
               qcoe:    0.0000    
               qyuk:    0.0000    
               qwid:   0.10000E-01
                rcs:    0.0000      0.0000    
            lambdas:    1.0000      1.0000    
-------------------------------------------------------------------------------
L=0  Nkbl=2  erefs: 0.17977+309 0.17977+309
L=1  Nkbl=2  erefs: 0.17977+309 0.17977+309
L=2  Nkbl=1  erefs: 0.17977+309
L=3  Nkbl=1  erefs: 0.17977+309
===============================================================================
</basis_specs>

Using PAO.SplitTailNorm
atom: Called for Au                    (Z =  79)
Maximum radius (at nrval) set to   50.00000 8518

read_vps: Pseudopotential generation method:
read_vps: ONCVPSP-3.Hamann's oncvpsp                        
Valence charge in pseudo generation:   19.00000

read_vps: Pseudopotential includes a core correction:
read_vps: Pseudo-core for xc-correction

xc_check: Exchange-correlation functional:
xc_check: GGA Perdew, Burke & Ernzerhof 1996
Got Vlocal (oncv-fit) from psml data
Choosing vlocal chloc cutoff:  5.037181
qtot up to nchloc:   18.99999407
atom: Maximum radius for chlocal:    5.03718
atom: Maximum radius for r*vlocal+2*Zval:    5.03718
Reading KB projs from Au psml data
Using scalar-relativistic projectors in PSML file

PSML: Kleinman-Bylander projectors: 
   l= 0   rc=  1.474132   Ekb= 18.815768
   l= 0   rc=  1.474132   Ekb= -0.390506
   l= 1   rc=  1.583336   Ekb=  4.781134
   l= 1   rc=  1.583336   Ekb= -3.699696
   l= 2   rc=  1.583336   Ekb=  2.968821
   l= 2   rc=  1.583336   Ekb=  0.574456
   l= 3   rc=  1.622038   Ekb=  2.312314

PSML: Total number of  Kleinman-Bylander projectors:  25
atom: -------------------------------------------------------------------------

atom: SANKEY-TYPE ORBITALS:
atom: Selected multiple-zeta basis: split     

SPLIT: Orbitals with angular momentum L= 0

SPLIT: Basis orbitals for state 5s

SPLIT: PAO cut-off radius determined from an
SPLIT: energy shift=  0.000735 Ry
Split based on tail norm

   izeta = 1
                 lambda =    1.000000
                     rc =    2.925359
                 energy =   -7.964134
                kinetic =    2.893592
    potential(screened) =  -10.857725
       potential(ionic) =  -37.457701

SPLIT: Basis orbitals for state 6s

SPLIT: PAO cut-off radius determined from an
SPLIT: energy shift=  0.000735 Ry
Split based on tail norm

   izeta = 1
                 lambda =    1.000000
                     rc =    8.033223
                 energy =   -0.536485
                kinetic =    1.477051
    potential(screened) =   -2.013535
       potential(ionic) =  -17.521292

   izeta = 2
                 rmatch =    4.927355
              splitnorm =    0.150000
                 energy =   -0.413505
                kinetic =    2.478661
    potential(screened) =   -2.892166
       potential(ionic) =  -20.911581

SPLIT: Orbitals with angular momentum L= 1

SPLIT: Basis orbitals for state 5p

SPLIT: PAO cut-off radius determined from an
SPLIT: energy shift=  0.000735 Ry
Split based on tail norm

   izeta = 1
                 lambda =    1.000000
                     rc =    3.518348
                 energy =   -4.393065
                kinetic =    4.954761
    potential(screened) =   -9.347826
       potential(ionic) =  -34.716971

SPLIT: Basis orbitals for state 6p
SPLIT: Non-perturbative polarization orbs for state 6s
SPLIT: rc(1st zeta) (re)set to: 8.0332 (expansion factor: 1.0000)
Split based on tail norm

   izeta = 1
                 lambda =    1.000000
                     rc =    8.033223
                 energy =   -0.028561
                kinetic =    0.837945
    potential(screened) =   -0.866506
       potential(ionic) =  -11.902774

SPLIT: Orbitals with angular momentum L= 2

SPLIT: Basis orbitals for state 5d

SPLIT: PAO cut-off radius determined from an
SPLIT: energy shift=  0.000735 Ry
Split based on tail norm

   izeta = 1
                 lambda =    1.000000
                     rc =    6.393405
                 energy =   -0.504592
                kinetic =    4.935315
    potential(screened) =   -5.439906
       potential(ionic) =  -26.571989

   izeta = 2
                 rmatch =    3.462344
              splitnorm =    0.150000
                 energy =   -0.397189
                kinetic =    6.101362
    potential(screened) =   -6.498551
       potential(ionic) =  -29.253309
atom: Total number of Sankey-type orbitals: 19

atm_pop: Valence configuration (for local Pseudopot. screening):
 5s( 2.00) 6s( 1.00)                                                  
 5p( 6.00) 6p( 0.00)                                                  
 5d(10.00)                                                            
Vna: chval, zval:   19.00000  19.00000

Vna:  Cut-off radius for the neutral-atom potential:   8.033223
comcore: Pseudo-core radius Rcore=  2.583037

atom: _________________________________________________________________________

prinput: Basis input 

PAO.BasisType split     

%block ChemicalSpeciesLabel
    1   79 Au                      # Species index, atomic number, species label
%endblock ChemicalSpeciesLabel

%block PAO.Basis                 # Define Basis set
# WARNING: This information might be incomplete!
Au                    5                    # Species label, number of l-shells
 n=5   0   1                         # n, l, Nzeta 
   2.925   
   1.000   
 n=6   0   2                         # n, l, Nzeta 
   8.033      4.927   
   1.000      1.000   
 n=5   1   1                         # n, l, Nzeta 
   3.518   
   1.000   
 n=6   1   1                         # n, l, Nzeta 
   8.033   
   1.000   
 n=5   2   2                         # n, l, Nzeta 
   6.393      3.462   
   1.000      1.000   
%endblock PAO.Basis

prinput: ----------------------------------------------------------------------

Dumping basis to NetCDF file Au.ion.nc
coor:   Atomic-coordinates input format  =     Cartesian coordinates
coor:                                          (in Angstroms)

siesta: Atomic coordinates (Bohr) and species
siesta:      0.00000   0.00000   0.00000  1        1
siesta:      0.00000   3.94129   3.94129  1        2
siesta:      3.94129   0.00000   3.94129  1        3
siesta:      3.94129   3.94129   0.00000  1        4
siesta:      7.88260   7.88260   7.88260  1        5
siesta:      7.88260   3.94129   3.94129  1        6
siesta:      3.94129   7.88260   3.94129  1        7

siesta: System type = molecule  

initatomlists: Number of atoms, orbitals, and projectors:      7   133   175

coxmol: Writing XMOL coordinates into file AuRel.xyz                                                                                                                                                                                                                           

siesta: ******************** Simulation parameters ****************************
siesta:
siesta: The following are some of the parameters of the simulation.
siesta: A complete list of the parameters used, including default values,
siesta: can be found in file out.fdf
siesta:
redata: Spin configuration                          = none
redata: Number of spin components                   = 1
redata: Time-Reversal Symmetry                      = T
redata: Spin spiral                                 = F
redata: Long output                                 =   F
redata: Number of Atomic Species                    =        1
redata: Charge density info will appear in .RHO file
redata: Write Mulliken charges (when)               = none
redata: Write Mulliken Pop.                         = NO
redata: Write Hirshfeld charges (when)              = none
redata: Write Voronoi charges (when)                = none
redata: Write spin charge (when)                    = none
redata: Matel table size (NRTAB)                    =     1024
redata: Mesh Cutoff                                 =   300.0000 Ry
redata: Net charge of the system                    =     0.0000 |e|
redata: Min. number of SCF Iter                     =        0
redata: Max. number of SCF Iter                     =     1000
redata: SCF convergence failure will abort job
redata: SCF mix quantity                            = Hamiltonian
redata: Mix DM or H after convergence               =   F
redata: Recompute H after scf cycle                 =   F
redata: Mix DM in first SCF step                    =   T
redata: Write Pulay info on disk                    =   F
redata: New DM Occupancy tolerance                  = 0.000000000001
redata: No kicks to SCF
redata: DM Mixing Weight for Kicks                  =     0.5000
redata: Require Harris convergence for SCF          =   F
redata: Harris energy tolerance for SCF             =     0.000100 eV
redata: Require DM convergence for SCF              =   T
redata: DM tolerance for SCF                        =     0.000100
redata: Require EDM convergence for SCF             =   F
redata: EDM tolerance for SCF                       =     0.001000 eV
redata: Require H convergence for SCF               =   T
redata: Hamiltonian tolerance for SCF               =     0.001000 eV
redata: Require (free) Energy convergence for SCF   =   F
redata: (free) Energy tolerance for SCF             =     0.000100 eV
redata: Using DFT-D3 dispersion                     =   F
redata: Using Saved Data (generic)                  =   F
redata: Use continuation files for DM               =   T
redata: Neglect nonoverlap interactions             =   F
redata: Method of Calculation                       = Diagonalization
redata: Electronic Temperature                      =   290.1130 K
redata: Fix the spin of the system                  =   F
redata: Max. number of TDED Iter                    =        1
redata: Number of TDED substeps                     =        3
redata: Dynamics option                             = CG coord. optimization
redata: Variable cell                               =   F
redata: Use continuation files for CG               =   F
redata: Max atomic displ per move                   =     0.1058 Ang
redata: Maximum number of optimization moves        =       15
redata: Force tolerance                             =     0.0200 eV/Ang
mix.SCF: Pulay mixing                            = Pulay
mix.SCF:    Variant                              = stable
mix.SCF:    History steps                        = 2
mix.SCF:    Linear mixing weight                 =     0.250000
mix.SCF:    Mixing weight                        =     0.250000
mix.SCF:    SVD condition                        = 0.1000E-07
redata: Save all siesta data in one NC              =   F
redata: ***********************************************************************

%block SCF.Mixers
  Pulay
%endblock SCF.Mixers

%block SCF.Mixer.Pulay
  # Mixing method
  method pulay
  variant stable

  # Mixing options
  weight 0.2500
  weight.linear 0.2500
  history 2
%endblock SCF.Mixer.Pulay

DM_history_depth set to one: no extrapolation allowed by default for geometry relaxation
Size of DM history Fstack: 1
Total number of electrons:   133.000000
Total ionic charge:   133.000000

siesta: k-grid: Number of k-points = 1
siesta: k-point is Gamma-only

diag: Algorithm                                     = D&C
diag: Used triangular part                          = Lower
diag: Absolute tolerance                            =  0.100E-15
diag: Orthogonalization factor                      =  0.100E-05
diag: Memory factor                                 =  1.0000


ts: **************************************************************
ts: Save H and S matrices                           =    F
ts: Save DM and EDM matrices                        =    F
ts: Only save the overlap matrix S                  =    F
ts: **************************************************************

************************ Begin: TS CHECKS AND WARNINGS ************************
************************ End: TS CHECKS AND WARNINGS **************************


                     ====================================
                        Begin CG opt. move =      0
                     ====================================

outcell: Unit cell vectors (Ang):
       20.000000    0.000000    0.000000
        0.000000   20.000000    0.000000
        0.000000    0.000000   20.000000

outcell: Cell vector modules (Ang)   :   20.000000   20.000000   20.000000
outcell: Cell angles (23,13,12) (deg):     90.0000     90.0000     90.0000
outcell: Cell volume (Ang**3)        :   8000.0000
<dSpData1D:S at geom step 0
  <sparsity:sparsity for geom step 0
    nrows_g=133 nrows=133 sparsity=.8860 nnzs=15673, refcount: 7>
  <dData1D:(new from dSpData1D) n=15673, refcount: 1>
refcount: 1>
new_DM -- step:     1
Initializing Density Matrix...

Attempting to read DM from file... Failed...
DM filled with atomic data:
<dSpData2D:DM initialized from atoms
  <sparsity:sparsity for geom step 0
    nrows_g=133 nrows=133 sparsity=.8860 nnzs=15673, refcount: 8>
  <dData2D:DM n=15673 m=1, refcount: 1>
refcount: 1>
No. of atoms with KB's overlaping orbs in proc 0. Max # of overlaps:       7      73

InitMesh: MESH = 216 x 216 x 216 = 10077696
InitMesh: Mesh cutoff (required, used) =   300.000   322.366 Ry
New grid distribution [1]: sub = 2

stepf: Fermi-Dirac step function

siesta: Program's energy decomposition (eV):
siesta: Ebs     =     -5152.932017
siesta: Eions   =     35544.686385
siesta: Ena     =      3586.783995
siesta: Ekin    =      7875.058754
siesta: Enl     =       469.964700
siesta: Eso     =         0.000000
siesta: Edftu   =         0.000000
siesta: DEna    =       287.663358
siesta: DUscf   =        12.884515
siesta: DUext   =         0.000000
siesta: Ex      =     -4617.289876
siesta: Ec      =      -278.721836
siesta: Exc     =     -4896.011712
siesta: EbV     =         0.000000
siesta: eta*DQ  =         0.000000
siesta: Emadel  =         0.000000
siesta: Emeta   =         0.000000
siesta: Emolmec =         0.000000
siesta: Ekinion =         0.000000
siesta: Eharris =    -28198.112294
siesta: Etot    =    -28208.342775
siesta: FreeEng =    -28208.378551

        iscf     Eharris(eV)        E_KS(eV)     FreeEng(eV)     dDmax    Ef(eV) dHmax(eV)
   scf:    1   -28198.112294   -28208.342775   -28208.378551  1.772264 -3.815625  9.998353
timer: Routine,Calls,Time,% = IterSCF        1       6.028  32.03
   scf:    2   -28217.647221   -28214.158608   -28214.193833  0.797761 -4.618975  3.603293
   scf:    3   -28215.044599   -28214.786950   -28214.828496  0.215650 -4.931527  1.194659
   scf:    4   -28214.853125   -28214.856057   -28214.894518  0.163308 -4.987965  0.574269
   scf:    5   -28214.867188   -28214.867089   -28214.908094  0.052340 -5.021616  0.227976
   scf:    6   -28214.872438   -28214.870186   -28214.910873  0.019518 -5.043533  0.110303
   scf:    7   -28214.870115   -28214.870384   -28214.911815  0.009984 -5.074162  0.076062
   scf:    8   -28214.871348   -28214.871053   -28214.911962  0.017166 -5.093158  0.057446
   scf:    9   -28214.870209   -28214.870703   -28214.912044  0.008491 -5.097511  0.028599
   scf:   10   -28214.870970   -28214.870842   -28214.912065  0.003013 -5.100875  0.015788
   scf:   11   -28214.870706   -28214.870775   -28214.912068  0.000824 -5.107391  0.013443
   scf:   12   -28214.871032   -28214.870909   -28214.912071  0.003664 -5.114048  0.009312
   scf:   13   -28214.870721   -28214.870818   -28214.912074  0.001963 -5.113550  0.003804
   scf:   14   -28214.870857   -28214.870837   -28214.912074  0.000447 -5.114167  0.001696
   scf:   15   -28214.870838   -28214.870837   -28214.912074  0.000076 -5.114867  0.000967

SCF Convergence by DM+H criterion
max |DM_out - DM_in|         :     0.0000760986
max |H_out - H_in|      (eV) :     0.0009673369
SCF cycle converged after 15 iterations

Using DM_out to compute the final energy and forces
No. of atoms with KB's overlaping orbs in proc 0. Max # of overlaps:       7      73

siesta: E_KS(eV) =           -28214.8708

siesta: E_KS - E_eggbox =    -28214.8708

siesta: Atomic forces (eV/Ang):
----------------------------------------
   Tot    0.000131    0.000131    0.000410
----------------------------------------
   Max    1.447361
   Res    0.712939    sqrt( Sum f_i^2 / 3N )
----------------------------------------
   Max    1.447361    constrained

Stress tensor Voigt[x,y,z,yz,xz,xy] (kbar):        1.18        1.18        1.49        0.40        0.40        0.60
(Free)E + p*V (eV/cell)   -28221.3343
Target enthalpy (eV/cell)   -28214.9121

                     ====================================
                        Begin CG opt. move =      1
                     ====================================

outcell: Unit cell vectors (Ang):
       20.000000    0.000000    0.000000
        0.000000   20.000000    0.000000
        0.000000    0.000000   20.000000

outcell: Cell vector modules (Ang)   :   20.000000   20.000000   20.000000
outcell: Cell angles (23,13,12) (deg):     90.0000     90.0000     90.0000
outcell: Cell volume (Ang**3)        :   8000.0000
<dSpData1D:S at geom step 1
  <sparsity:sparsity for geom step 1
    nrows_g=133 nrows=133 sparsity=.8865 nnzs=15681, refcount: 7>
  <dData1D:(new from dSpData1D) n=15681, refcount: 1>
refcount: 1>
new_DM -- step:     2
Re-using DM from previous geometries...
Number of DMs in history: 1
 DM extrapolation coefficients: 
1   1.00000
New DM after history re-use:
<dSpData2D:SpM extrapolated using coords
  <sparsity:sparsity for geom step 1
    nrows_g=133 nrows=133 sparsity=.8865 nnzs=15681, refcount: 9>
  <dData2D:(temp array for extrapolation) n=15681 m=1, refcount: 1>
refcount: 1>
No. of atoms with KB's overlaping orbs in proc 0. Max # of overlaps:       7      73

InitMesh: MESH = 216 x 216 x 216 = 10077696
InitMesh: Mesh cutoff (required, used) =   300.000   322.366 Ry
New grid distribution [1]: sub = 2

        iscf     Eharris(eV)        E_KS(eV)     FreeEng(eV)     dDmax    Ef(eV) dHmax(eV)
   scf:    1   -28215.939037   -28215.183253   -28215.222260  0.128868 -5.135371  0.272426
   scf:    2   -28215.017987   -28215.130455   -28215.178269  0.189859 -5.081041  0.848967
   scf:    3   -28215.198043   -28215.186620   -28215.226190  0.171714 -5.116573  0.073156
   scf:    4   -28215.185909   -28215.186346   -28215.226470  0.008731 -5.114599  0.009741
   scf:    5   -28215.186087   -28215.186219   -28215.226481  0.001461 -5.115097  0.003975
   scf:    6   -28215.186198   -28215.186209   -28215.226483  0.000260 -5.115376  0.002238
   scf:    7   -28215.186148   -28215.186178   -28215.226485  0.000341 -5.115799  0.001468
   scf:    8   -28215.186151   -28215.186165   -28215.226486  0.000249 -5.116131  0.000768
   scf:    9   -28215.186160   -28215.186162   -28215.226486  0.000077 -5.116145  0.000371

SCF Convergence by DM+H criterion
max |DM_out - DM_in|         :     0.0000769062
max |H_out - H_in|      (eV) :     0.0003709464
SCF cycle converged after 9 iterations

Using DM_out to compute the final energy and forces
No. of atoms with KB's overlaping orbs in proc 0. Max # of overlaps:       7      73

siesta: E_KS(eV) =           -28215.1862

siesta: Atomic forces (eV/Ang):
----------------------------------------
   Tot    0.000201    0.000201   -0.000835
----------------------------------------
   Max    1.117195
   Res    0.583513    sqrt( Sum f_i^2 / 3N )
----------------------------------------
   Max    1.117195    constrained

Stress tensor Voigt[x,y,z,yz,xz,xy] (kbar):        0.92        0.92        1.21        0.36        0.36        0.58
(Free)E + p*V (eV/cell)   -28220.2986
Target enthalpy (eV/cell)   -28215.2265

                     ====================================
                        Begin CG opt. move =      2
                     ====================================

outcell: Unit cell vectors (Ang):
       20.000000    0.000000    0.000000
        0.000000   20.000000    0.000000
        0.000000    0.000000   20.000000

outcell: Cell vector modules (Ang)   :   20.000000   20.000000   20.000000
outcell: Cell angles (23,13,12) (deg):     90.0000     90.0000     90.0000
outcell: Cell volume (Ang**3)        :   8000.0000
<dSpData1D:S at geom step 2
  <sparsity:sparsity for geom step 2
    nrows_g=133 nrows=133 sparsity=.8876 nnzs=15701, refcount: 7>
  <dData1D:(new from dSpData1D) n=15701, refcount: 1>
refcount: 1>
new_DM -- step:     3
Re-using DM from previous geometries...
Number of DMs in history: 1
 DM extrapolation coefficients: 
1   1.00000
New DM after history re-use:
<dSpData2D:SpM extrapolated using coords
  <sparsity:sparsity for geom step 2
    nrows_g=133 nrows=133 sparsity=.8876 nnzs=15701, refcount: 9>
  <dData2D:(temp array for extrapolation) n=15701 m=1, refcount: 1>
refcount: 1>
No. of atoms with KB's overlaping orbs in proc 0. Max # of overlaps:       7      73

InitMesh: MESH = 216 x 216 x 216 = 10077696
InitMesh: Mesh cutoff (required, used) =   300.000   322.366 Ry
New grid distribution [1]: sub = 2

        iscf     Eharris(eV)        E_KS(eV)     FreeEng(eV)     dDmax    Ef(eV) dHmax(eV)
   scf:    1   -28216.220510   -28215.510182   -28215.547432  0.187497 -5.156415  0.565447
   scf:    2   -28214.775293   -28215.280953   -28215.334522  0.389946 -5.048176  1.692155
   scf:    3   -28215.553319   -28215.524221   -28215.561969  0.357887 -5.121321  0.148465
   scf:    4   -28215.524299   -28215.524549   -28215.563165  0.013741 -5.117645  0.028962
   scf:    5   -28215.523744   -28215.524179   -28215.563255  0.005382 -5.118804  0.008760
   scf:    6   -28215.524128   -28215.524154   -28215.563264  0.000398 -5.119500  0.004239
   scf:    7   -28215.524026   -28215.524090   -28215.563270  0.000537 -5.120362  0.002892
   scf:    8   -28215.523999   -28215.524045   -28215.563272  0.000390 -5.121066  0.001261
   scf:    9   -28215.524042   -28215.524043   -28215.563272  0.000089 -5.121139  0.000658

SCF Convergence by DM+H criterion
max |DM_out - DM_in|         :     0.0000892298
max |H_out - H_in|      (eV) :     0.0006582222
SCF cycle converged after 9 iterations

Using DM_out to compute the final energy and forces
No. of atoms with KB's overlaping orbs in proc 0. Max # of overlaps:       7      73

siesta: E_KS(eV) =           -28215.5240

siesta: Atomic forces (eV/Ang):
----------------------------------------
   Tot    0.000714    0.000714    0.002252
----------------------------------------
   Max    0.806835
   Res    0.346295    sqrt( Sum f_i^2 / 3N )
----------------------------------------
   Max    0.806835    constrained

Stress tensor Voigt[x,y,z,yz,xz,xy] (kbar):        0.34        0.34        0.62        0.29        0.29        0.52
(Free)E + p*V (eV/cell)   -28217.7183
Target enthalpy (eV/cell)   -28215.5633

                     ====================================
                        Begin CG opt. move =      3
                     ====================================

outcell: Unit cell vectors (Ang):
       20.000000    0.000000    0.000000
        0.000000   20.000000    0.000000
        0.000000    0.000000   20.000000

outcell: Cell vector modules (Ang)   :   20.000000   20.000000   20.000000
outcell: Cell angles (23,13,12) (deg):     90.0000     90.0000     90.0000
outcell: Cell volume (Ang**3)        :   8000.0000
<dSpData1D:S at geom step 3
  <sparsity:sparsity for geom step 3
    nrows_g=133 nrows=133 sparsity=.8942 nnzs=15817, refcount: 7>
  <dData1D:(new from dSpData1D) n=15817, refcount: 1>
refcount: 1>
new_DM -- step:     4
Re-using DM from previous geometries...
Number of DMs in history: 1
 DM extrapolation coefficients: 
1   1.00000
New DM after history re-use:
<dSpData2D:SpM extrapolated using coords
  <sparsity:sparsity for geom step 3
    nrows_g=133 nrows=133 sparsity=.8942 nnzs=15817, refcount: 9>
  <dData2D:(temp array for extrapolation) n=15817 m=1, refcount: 1>
refcount: 1>
No. of atoms with KB's overlaping orbs in proc 0. Max # of overlaps:       7      89

InitMesh: MESH = 216 x 216 x 216 = 10077696
InitMesh: Mesh cutoff (required, used) =   300.000   322.366 Ry
New grid distribution [1]: sub = 2

        iscf     Eharris(eV)        E_KS(eV)     FreeEng(eV)     dDmax    Ef(eV) dHmax(eV)
   scf:    1   -28215.072200   -28215.373213   -28215.408955  0.266351 -5.199908  1.346925
   scf:    2   -28211.711692   -28214.240126   -28214.292702  0.751379 -4.972897  4.348246
   scf:    3   -28215.499129   -28215.430107   -28215.466034  0.703106 -5.135636  0.297536
   scf:    4   -28215.436909   -28215.434622   -28215.471490  0.018228 -5.128298  0.089188
   scf:    5   -28215.433427   -28215.434326   -28215.472270  0.012692 -5.131310  0.019729
   scf:    6   -28215.434170   -28215.434254   -28215.472319  0.000710 -5.133204  0.009232
   scf:    7   -28215.433950   -28215.434104   -28215.472343  0.000864 -5.135028  0.006200
   scf:    8   -28215.433887   -28215.433996   -28215.472352  0.000597 -5.136337  0.002363
   scf:    9   -28215.433958   -28215.433977   -28215.472353  0.000232 -5.136674  0.001306
   scf:   10   -28215.433977   -28215.433977   -28215.472353  0.000098 -5.136799  0.000787

SCF Convergence by DM+H criterion
max |DM_out - DM_in|         :     0.0000980177
max |H_out - H_in|      (eV) :     0.0007865177
SCF cycle converged after 10 iterations

Using DM_out to compute the final energy and forces
No. of atoms with KB's overlaping orbs in proc 0. Max # of overlaps:       7      89

siesta: E_KS(eV) =           -28215.4340

siesta: Atomic forces (eV/Ang):
----------------------------------------
   Tot   -0.001549   -0.001549    0.000893
----------------------------------------
   Max    1.907654
   Res    0.819061    sqrt( Sum f_i^2 / 3N )
----------------------------------------
   Max    1.907654    constrained

Stress tensor Voigt[x,y,z,yz,xz,xy] (kbar):       -0.99       -0.99       -0.65        0.16        0.16        0.39
(Free)E + p*V (eV/cell)   -28211.1125
Target enthalpy (eV/cell)   -28215.4724

                     ====================================
                        Begin CG opt. move =      4
                     ====================================

outcell: Unit cell vectors (Ang):
       20.000000    0.000000    0.000000
        0.000000   20.000000    0.000000
        0.000000    0.000000   20.000000

outcell: Cell vector modules (Ang)   :   20.000000   20.000000   20.000000
outcell: Cell angles (23,13,12) (deg):     90.0000     90.0000     90.0000
outcell: Cell volume (Ang**3)        :   8000.0000
<dSpData1D:S at geom step 4
  <sparsity:sparsity for geom step 4
    nrows_g=133 nrows=133 sparsity=.8899 nnzs=15741, refcount: 7>
  <dData1D:(new from dSpData1D) n=15741, refcount: 1>
refcount: 1>
new_DM -- step:     5
Re-using DM from previous geometries...
Number of DMs in history: 1
 DM extrapolation coefficients: 
1   1.00000
New DM after history re-use:
<dSpData2D:SpM extrapolated using coords
  <sparsity:sparsity for geom step 4
    nrows_g=133 nrows=133 sparsity=.8899 nnzs=15741, refcount: 9>
  <dData2D:(temp array for extrapolation) n=15741 m=1, refcount: 1>
refcount: 1>
No. of atoms with KB's overlaping orbs in proc 0. Max # of overlaps:       7      79

InitMesh: MESH = 216 x 216 x 216 = 10077696
InitMesh: Mesh cutoff (required, used) =   300.000   322.366 Ry
New grid distribution [1]: sub = 2

        iscf     Eharris(eV)        E_KS(eV)     FreeEng(eV)     dDmax    Ef(eV) dHmax(eV)
   scf:    1   -28214.929664   -28215.532888   -28215.576136  0.211383 -5.073286  1.167696
   scf:    2   -28214.167407   -28215.142964   -28215.177644  0.372978 -5.207246  3.244662
   scf:    3   -28215.689471   -28215.585145   -28215.622792  0.263228 -5.123482  0.117750
   scf:    4   -28215.584043   -28215.584902   -28215.623634  0.012032 -5.127025  0.031161
   scf:    5   -28215.585019   -28215.584971   -28215.623706  0.001253 -5.127679  0.012979
   scf:    6   -28215.584850   -28215.584912   -28215.623730  0.000986 -5.127442  0.007891
   scf:    7   -28215.584879   -28215.584896   -28215.623737  0.000497 -5.126815  0.004316
   scf:    8   -28215.584876   -28215.584886   -28215.623739  0.000384 -5.126059  0.001601
   scf:    9   -28215.584893   -28215.584890   -28215.623739  0.000232 -5.125509  0.000442
   scf:   10   -28215.584897   -28215.584893   -28215.623739  0.000036 -5.125450  0.000317

SCF Convergence by DM+H criterion
max |DM_out - DM_in|         :     0.0000361988
max |H_out - H_in|      (eV) :     0.0003167704
SCF cycle converged after 10 iterations

Using DM_out to compute the final energy and forces
No. of atoms with KB's overlaping orbs in proc 0. Max # of overlaps:       7      79

siesta: E_KS(eV) =           -28215.5849

siesta: Atomic forces (eV/Ang):
----------------------------------------
   Tot    0.000970    0.000970    0.001499
----------------------------------------
   Max    0.658672
   Res    0.336332    sqrt( Sum f_i^2 / 3N )
----------------------------------------
   Max    0.658672    constrained

Stress tensor Voigt[x,y,z,yz,xz,xy] (kbar):       -0.04       -0.04        0.25        0.24        0.24        0.48
(Free)E + p*V (eV/cell)   -28215.8891
Target enthalpy (eV/cell)   -28215.6237

cgvc: Finished line minimization    1.  Mean atomic displacement =    0.1537

                     ====================================
                        Begin CG opt. move =      5
                     ====================================

outcell: Unit cell vectors (Ang):
       20.000000    0.000000    0.000000
        0.000000   20.000000    0.000000
        0.000000    0.000000   20.000000

outcell: Cell vector modules (Ang)   :   20.000000   20.000000   20.000000
outcell: Cell angles (23,13,12) (deg):     90.0000     90.0000     90.0000
outcell: Cell volume (Ang**3)        :   8000.0000
<dSpData1D:S at geom step 5
  <sparsity:sparsity for geom step 5
    nrows_g=133 nrows=133 sparsity=.8985 nnzs=15893, refcount: 7>
  <dData1D:(new from dSpData1D) n=15893, refcount: 1>
refcount: 1>
new_DM -- step:     6
Re-using DM from previous geometries...
Number of DMs in history: 1
 DM extrapolation coefficients: 
1   1.00000
New DM after history re-use:
<dSpData2D:SpM extrapolated using coords
  <sparsity:sparsity for geom step 5
    nrows_g=133 nrows=133 sparsity=.8985 nnzs=15893, refcount: 9>
  <dData2D:(temp array for extrapolation) n=15893 m=1, refcount: 1>
refcount: 1>
No. of atoms with KB's overlaping orbs in proc 0. Max # of overlaps:       7      80

InitMesh: MESH = 216 x 216 x 216 = 10077696
InitMesh: Mesh cutoff (required, used) =   300.000   322.366 Ry
New grid distribution [1]: sub = 2

        iscf     Eharris(eV)        E_KS(eV)     FreeEng(eV)     dDmax    Ef(eV) dHmax(eV)
   scf:    1   -28216.886265   -28215.754081   -28215.788744  0.280477 -5.102577  0.862211
   scf:    2   -28213.019030   -28214.930983   -28214.965749  0.300590 -5.052684  3.770222
   scf:    3   -28215.971706   -28215.807381   -28215.842053  0.236874 -5.090120  0.061712
   scf:    4   -28215.807901   -28215.807669   -28215.842343  0.002680 -5.087186  0.034193
   scf:    5   -28215.807846   -28215.807770   -28215.842444  0.002182 -5.085532  0.006501
   scf:    6   -28215.807794   -28215.807783   -28215.842458  0.000429 -5.085529  0.003806
   scf:    7   -28215.807792   -28215.807788   -28215.842463  0.000261 -5.085547  0.001332
   scf:    8   -28215.807788   -28215.807788   -28215.842464  0.000083 -5.085521  0.000783

SCF Convergence by DM+H criterion
max |DM_out - DM_in|         :     0.0000826086
max |H_out - H_in|      (eV) :     0.0007834179
SCF cycle converged after 8 iterations

Using DM_out to compute the final energy and forces
No. of atoms with KB's overlaping orbs in proc 0. Max # of overlaps:       7      80

siesta: E_KS(eV) =           -28215.8078

siesta: Atomic forces (eV/Ang):
----------------------------------------
   Tot    0.002259    0.002259   -0.001234
----------------------------------------
   Max    0.439180
   Res    0.202235    sqrt( Sum f_i^2 / 3N )
----------------------------------------
   Max    0.439180    constrained

Stress tensor Voigt[x,y,z,yz,xz,xy] (kbar):       -0.11       -0.11        0.13        0.05        0.05        0.31
(Free)E + p*V (eV/cell)   -28215.7026
Target enthalpy (eV/cell)   -28215.8425

                     ====================================
                        Begin CG opt. move =      6
                     ====================================

outcell: Unit cell vectors (Ang):
       20.000000    0.000000    0.000000
        0.000000   20.000000    0.000000
        0.000000    0.000000   20.000000

outcell: Cell vector modules (Ang)   :   20.000000   20.000000   20.000000
outcell: Cell angles (23,13,12) (deg):     90.0000     90.0000     90.0000
outcell: Cell volume (Ang**3)        :   8000.0000
<dSpData1D:S at geom step 6
  <sparsity:sparsity for geom step 6
    nrows_g=133 nrows=133 sparsity=.9193 nnzs=16261, refcount: 7>
  <dData1D:(new from dSpData1D) n=16261, refcount: 1>
refcount: 1>
new_DM -- step:     7
Re-using DM from previous geometries...
Number of DMs in history: 1
 DM extrapolation coefficients: 
1   1.00000
New DM after history re-use:
<dSpData2D:SpM extrapolated using coords
  <sparsity:sparsity for geom step 6
    nrows_g=133 nrows=133 sparsity=.9193 nnzs=16261, refcount: 9>
  <dData2D:(temp array for extrapolation) n=16261 m=1, refcount: 1>
refcount: 1>
No. of atoms with KB's overlaping orbs in proc 0. Max # of overlaps:       7      88

InitMesh: MESH = 216 x 216 x 216 = 10077696
InitMesh: Mesh cutoff (required, used) =   300.000   322.366 Ry
New grid distribution [1]: sub = 2

        iscf     Eharris(eV)        E_KS(eV)     FreeEng(eV)     dDmax    Ef(eV) dHmax(eV)
   scf:    1   -28216.723260   -28215.748546   -28215.783203  0.253564 -5.072187  0.837576
   scf:    2   -28214.052789   -28215.241019   -28215.275676  0.223090 -4.971693  3.131084
   scf:    3   -28215.887112   -28215.785213   -28215.819871  0.178388 -5.044952  0.069012
   scf:    4   -28215.785870   -28215.785578   -28215.820236  0.002924 -5.040908  0.035913
   scf:    5   -28215.785774   -28215.785692   -28215.820349  0.002256 -5.038680  0.007167
   scf:    6   -28215.785715   -28215.785704   -28215.820361  0.000390 -5.038580  0.004585
   scf:    7   -28215.785714   -28215.785709   -28215.820367  0.000311 -5.038509  0.001349
   scf:    8   -28215.785710   -28215.785710   -28215.820367  0.000078 -5.038458  0.000954

SCF Convergence by DM+H criterion
max |DM_out - DM_in|         :     0.0000783925
max |H_out - H_in|      (eV) :     0.0009541310
SCF cycle converged after 8 iterations

Using DM_out to compute the final energy and forces
No. of atoms with KB's overlaping orbs in proc 0. Max # of overlaps:       7      88

siesta: E_KS(eV) =           -28215.7857

siesta: Atomic forces (eV/Ang):
----------------------------------------
   Tot   -0.000662   -0.000661    0.001052
----------------------------------------
   Max    1.161161
   Res    0.510051    sqrt( Sum f_i^2 / 3N )
----------------------------------------
   Max    1.161161    constrained

Stress tensor Voigt[x,y,z,yz,xz,xy] (kbar):       -0.37       -0.37       -0.13       -0.23       -0.23        0.13
(Free)E + p*V (eV/cell)   -28214.3630
Target enthalpy (eV/cell)   -28215.8204

                     ====================================
                        Begin CG opt. move =      7
                     ====================================

outcell: Unit cell vectors (Ang):
       20.000000    0.000000    0.000000
        0.000000   20.000000    0.000000
        0.000000    0.000000   20.000000

outcell: Cell vector modules (Ang)   :   20.000000   20.000000   20.000000
outcell: Cell angles (23,13,12) (deg):     90.0000     90.0000     90.0000
outcell: Cell volume (Ang**3)        :   8000.0000
<dSpData1D:S at geom step 7
  <sparsity:sparsity for geom step 7
    nrows_g=133 nrows=133 sparsity=.9080 nnzs=16061, refcount: 7>
  <dData1D:(new from dSpData1D) n=16061, refcount: 1>
refcount: 1>
new_DM -- step:     8
Re-using DM from previous geometries...
Number of DMs in history: 1
 DM extrapolation coefficients: 
1   1.00000
New DM after history re-use:
<dSpData2D:SpM extrapolated using coords
  <sparsity:sparsity for geom step 7
    nrows_g=133 nrows=133 sparsity=.9080 nnzs=16061, refcount: 9>
  <dData2D:(temp array for extrapolation) n=16061 m=1, refcount: 1>
refcount: 1>
No. of atoms with KB's overlaping orbs in proc 0. Max # of overlaps:       7      83

InitMesh: MESH = 216 x 216 x 216 = 10077696
InitMesh: Mesh cutoff (required, used) =   300.000   322.366 Ry
New grid distribution [1]: sub = 2

        iscf     Eharris(eV)        E_KS(eV)     FreeEng(eV)     dDmax    Ef(eV) dHmax(eV)
   scf:    1   -28214.780395   -28215.818095   -28215.852754  0.160848 -5.043923  0.541709
   scf:    2   -28215.294602   -28215.662792   -28215.697451  0.140077 -5.102315  1.849338
   scf:    3   -28215.862839   -28215.831274   -28215.865933  0.113257 -5.063715  0.039408
   scf:    4   -28215.831563   -28215.831435   -28215.866094  0.001841 -5.065664  0.021663
   scf:    5   -28215.831518   -28215.831483   -28215.866142  0.001332 -5.066567  0.004524
   scf:    6   -28215.831493   -28215.831488   -28215.866147  0.000327 -5.066563  0.003140
   scf:    7   -28215.831492   -28215.831490   -28215.866149  0.000145 -5.066528  0.001217
   scf:    8   -28215.831491   -28215.831491   -28215.866149  0.000075 -5.066523  0.001039
   scf:    9   -28215.831491   -28215.831491   -28215.866150  0.000054 -5.066541  0.000434

SCF Convergence by DM+H criterion
max |DM_out - DM_in|         :     0.0000543493
max |H_out - H_in|      (eV) :     0.0004337951
SCF cycle converged after 9 iterations

Using DM_out to compute the final energy and forces
No. of atoms with KB's overlaping orbs in proc 0. Max # of overlaps:       7      83

siesta: E_KS(eV) =           -28215.8315

siesta: Atomic forces (eV/Ang):
----------------------------------------
   Tot    0.000707    0.000707    0.000135
----------------------------------------
   Max    0.571568
   Res    0.271007    sqrt( Sum f_i^2 / 3N )
----------------------------------------
   Max    0.571568    constrained

Stress tensor Voigt[x,y,z,yz,xz,xy] (kbar):       -0.18       -0.18        0.04       -0.05       -0.05        0.23
(Free)E + p*V (eV/cell)   -28215.3217
Target enthalpy (eV/cell)   -28215.8661

cgvc: Finished line minimization    2.  Mean atomic displacement =    0.1709

                     ====================================
                        Begin CG opt. move =      8
                     ====================================

outcell: Unit cell vectors (Ang):
       20.000000    0.000000    0.000000
        0.000000   20.000000    0.000000
        0.000000    0.000000   20.000000

outcell: Cell vector modules (Ang)   :   20.000000   20.000000   20.000000
outcell: Cell angles (23,13,12) (deg):     90.0000     90.0000     90.0000
outcell: Cell volume (Ang**3)        :   8000.0000
<dSpData1D:S at geom step 8
  <sparsity:sparsity for geom step 8
    nrows_g=133 nrows=133 sparsity=.9063 nnzs=16031, refcount: 7>
  <dData1D:(new from dSpData1D) n=16031, refcount: 1>
refcount: 1>
new_DM -- step:     9
Re-using DM from previous geometries...
Number of DMs in history: 1
 DM extrapolation coefficients: 
1   1.00000
New DM after history re-use:
<dSpData2D:SpM extrapolated using coords
  <sparsity:sparsity for geom step 8
    nrows_g=133 nrows=133 sparsity=.9063 nnzs=16031, refcount: 9>
  <dData2D:(temp array for extrapolation) n=16031 m=1, refcount: 1>
refcount: 1>
No. of atoms with KB's overlaping orbs in proc 0. Max # of overlaps:       7      83

InitMesh: MESH = 216 x 216 x 216 = 10077696
InitMesh: Mesh cutoff (required, used) =   300.000   322.366 Ry
New grid distribution [1]: sub = 2

        iscf     Eharris(eV)        E_KS(eV)     FreeEng(eV)     dDmax    Ef(eV) dHmax(eV)
   scf:    1   -28216.761737   -28215.891430   -28215.926087  0.276615 -5.076997  1.031045
   scf:    2   -28213.959208   -28215.309948   -28215.344606  0.252443 -4.985052  3.951834
   scf:    3   -28216.042252   -28215.930381   -28215.965038  0.196777 -5.054203  0.066628
   scf:    4   -28215.931057   -28215.930762   -28215.965419  0.003254 -5.048786  0.030959
   scf:    5   -28215.930977   -28215.930881   -28215.965539  0.002299 -5.044932  0.008376
   scf:    6   -28215.930922   -28215.930903   -28215.965561  0.000842 -5.043397  0.004979
   scf:    7   -28215.930913   -28215.930908   -28215.965566  0.000416 -5.042710  0.001821
   scf:    8   -28215.930910   -28215.930909   -28215.965567  0.000131 -5.042395  0.001138
   scf:    9   -28215.930910   -28215.930910   -28215.965567  0.000088 -5.042235  0.000756

SCF Convergence by DM+H criterion
max |DM_out - DM_in|         :     0.0000883770
max |H_out - H_in|      (eV) :     0.0007561101
SCF cycle converged after 9 iterations

Using DM_out to compute the final energy and forces
No. of atoms with KB's overlaping orbs in proc 0. Max # of overlaps:       7      83

siesta: E_KS(eV) =           -28215.9309

siesta: Atomic forces (eV/Ang):
----------------------------------------
   Tot    0.001181    0.001181    0.000163
----------------------------------------
   Max    0.431604
   Res    0.229130    sqrt( Sum f_i^2 / 3N )
----------------------------------------
   Max    0.431604    constrained

Stress tensor Voigt[x,y,z,yz,xz,xy] (kbar):       -0.24       -0.24        0.16       -0.02       -0.02       -0.17
(Free)E + p*V (eV/cell)   -28215.4484
Target enthalpy (eV/cell)   -28215.9656

                     ====================================
                        Begin CG opt. move =      9
                     ====================================

outcell: Unit cell vectors (Ang):
       20.000000    0.000000    0.000000
        0.000000   20.000000    0.000000
        0.000000    0.000000   20.000000

outcell: Cell vector modules (Ang)   :   20.000000   20.000000   20.000000
outcell: Cell angles (23,13,12) (deg):     90.0000     90.0000     90.0000
outcell: Cell volume (Ang**3)        :   8000.0000
<dSpData1D:S at geom step 9
  <sparsity:sparsity for geom step 9
    nrows_g=133 nrows=133 sparsity=.9063 nnzs=16031, refcount: 7>
  <dData1D:(new from dSpData1D) n=16031, refcount: 1>
refcount: 1>
new_DM -- step:    10
Re-using DM from previous geometries...
Number of DMs in history: 1
 DM extrapolation coefficients: 
1   1.00000
New DM after history re-use:
<dSpData2D:SpM extrapolated using coords
  <sparsity:sparsity for geom step 9
    nrows_g=133 nrows=133 sparsity=.9063 nnzs=16031, refcount: 9>
  <dData2D:(temp array for extrapolation) n=16031 m=1, refcount: 1>
refcount: 1>
No. of atoms with KB's overlaping orbs in proc 0. Max # of overlaps:       7      83

InitMesh: MESH = 216 x 216 x 216 = 10077696
InitMesh: Mesh cutoff (required, used) =   300.000   322.366 Ry
New grid distribution [1]: sub = 2

        iscf     Eharris(eV)        E_KS(eV)     FreeEng(eV)     dDmax    Ef(eV) dHmax(eV)
   scf:    1   -28215.799482   -28215.931790   -28215.966448  0.027039 -5.040031  0.113024
   scf:    2   -28215.911270   -28215.925654   -28215.960312  0.025867 -5.048817  0.402715
   scf:    3   -28215.933503   -28215.932240   -28215.966898  0.020363 -5.042880  0.005634
   scf:    4   -28215.932247   -28215.932244   -28215.966901  0.000298 -5.043344  0.003041
   scf:    5   -28215.932246   -28215.932245   -28215.966903  0.000273 -5.043722  0.000625
   scf:    6   -28215.932246   -28215.932245   -28215.966903  0.000059 -5.043812  0.000439

SCF Convergence by DM+H criterion
max |DM_out - DM_in|         :     0.0000594857
max |H_out - H_in|      (eV) :     0.0004390285
SCF cycle converged after 6 iterations

Using DM_out to compute the final energy and forces
No. of atoms with KB's overlaping orbs in proc 0. Max # of overlaps:       7      83

siesta: E_KS(eV) =           -28215.9322

siesta: Atomic forces (eV/Ang):
----------------------------------------
   Tot    0.001155    0.001155    0.000620
----------------------------------------
   Max    0.394054
   Res    0.199934    sqrt( Sum f_i^2 / 3N )
----------------------------------------
   Max    0.394054    constrained

Stress tensor Voigt[x,y,z,yz,xz,xy] (kbar):       -0.22       -0.22        0.15       -0.02       -0.02       -0.13
(Free)E + p*V (eV/cell)   -28215.4926
Target enthalpy (eV/cell)   -28215.9669

cgvc: Finished line minimization    3.  Mean atomic displacement =    0.1541

                     ====================================
                        Begin CG opt. move =     10
                     ====================================

outcell: Unit cell vectors (Ang):
       20.000000    0.000000    0.000000
        0.000000   20.000000    0.000000
        0.000000    0.000000   20.000000

outcell: Cell vector modules (Ang)   :   20.000000   20.000000   20.000000
outcell: Cell angles (23,13,12) (deg):     90.0000     90.0000     90.0000
outcell: Cell volume (Ang**3)        :   8000.0000
<dSpData1D:S at geom step 10
  <sparsity:sparsity for geom step 10
    nrows_g=133 nrows=133 sparsity=.9166 nnzs=16213, refcount: 7>
  <dData1D:(new from dSpData1D) n=16213, refcount: 1>
refcount: 1>
new_DM -- step:    11
Re-using DM from previous geometries...
Number of DMs in history: 1
 DM extrapolation coefficients: 
1   1.00000
New DM after history re-use:
<dSpData2D:SpM extrapolated using coords
  <sparsity:sparsity for geom step 10
    nrows_g=133 nrows=133 sparsity=.9166 nnzs=16213, refcount: 9>
  <dData2D:(temp array for extrapolation) n=16213 m=1, refcount: 1>
refcount: 1>
No. of atoms with KB's overlaping orbs in proc 0. Max # of overlaps:       7      83

InitMesh: MESH = 216 x 216 x 216 = 10077696
InitMesh: Mesh cutoff (required, used) =   300.000   322.366 Ry
New grid distribution [1]: sub = 2

        iscf     Eharris(eV)        E_KS(eV)     FreeEng(eV)     dDmax    Ef(eV) dHmax(eV)
   scf:    1   -28216.973011   -28215.993316   -28216.027973  0.133429 -5.028815  0.280900
   scf:    2   -28215.766777   -28215.927322   -28215.961980  0.082723 -5.004938  0.994475
   scf:    3   -28216.013774   -28216.000949   -28216.035607  0.065510 -5.021584  0.031382
   scf:    4   -28216.001478   -28216.001239   -28216.035896  0.001691 -5.020018  0.014784
   scf:    5   -28216.001403   -28216.001339   -28216.035996  0.001503 -5.018516  0.004243
   scf:    6   -28216.001350   -28216.001345   -28216.036002  0.000242 -5.018248  0.002423
   scf:    7   -28216.001350   -28216.001347   -28216.036005  0.000226 -5.018019  0.000762
   scf:    8   -28216.001348   -28216.001348   -28216.036005  0.000085 -5.017900  0.000350

SCF Convergence by DM+H criterion
max |DM_out - DM_in|         :     0.0000847781
max |H_out - H_in|      (eV) :     0.0003503293
SCF cycle converged after 8 iterations

Using DM_out to compute the final energy and forces
No. of atoms with KB's overlaping orbs in proc 0. Max # of overlaps:       7      83

siesta: E_KS(eV) =           -28216.0013

siesta: Atomic forces (eV/Ang):
----------------------------------------
   Tot    0.000533    0.000533    0.001416
----------------------------------------
   Max    0.397223
   Res    0.180940    sqrt( Sum f_i^2 / 3N )
----------------------------------------
   Max    0.397223    constrained

Stress tensor Voigt[x,y,z,yz,xz,xy] (kbar):       -0.07       -0.07        0.09       -0.07       -0.07        0.00
(Free)E + p*V (eV/cell)   -28215.9718
Target enthalpy (eV/cell)   -28216.0360

                     ====================================
                        Begin CG opt. move =     11
                     ====================================

outcell: Unit cell vectors (Ang):
       20.000000    0.000000    0.000000
        0.000000   20.000000    0.000000
        0.000000    0.000000   20.000000

outcell: Cell vector modules (Ang)   :   20.000000   20.000000   20.000000
outcell: Cell angles (23,13,12) (deg):     90.0000     90.0000     90.0000
outcell: Cell volume (Ang**3)        :   8000.0000
<dSpData1D:S at geom step 11
  <sparsity:sparsity for geom step 11
    nrows_g=133 nrows=133 sparsity=.9023 nnzs=15961, refcount: 7>
  <dData1D:(new from dSpData1D) n=15961, refcount: 1>
refcount: 1>
new_DM -- step:    12
Re-using DM from previous geometries...
Number of DMs in history: 1
 DM extrapolation coefficients: 
1   1.00000
New DM after history re-use:
<dSpData2D:SpM extrapolated using coords
  <sparsity:sparsity for geom step 11
    nrows_g=133 nrows=133 sparsity=.9023 nnzs=15961, refcount: 9>
  <dData2D:(temp array for extrapolation) n=15961 m=1, refcount: 1>
refcount: 1>
No. of atoms with KB's overlaping orbs in proc 0. Max # of overlaps:       7      75

InitMesh: MESH = 216 x 216 x 216 = 10077696
InitMesh: Mesh cutoff (required, used) =   300.000   322.366 Ry
New grid distribution [1]: sub = 2

        iscf     Eharris(eV)        E_KS(eV)     FreeEng(eV)     dDmax    Ef(eV) dHmax(eV)
   scf:    1   -28216.732963   -28215.944166   -28215.978823  0.101575 -4.992572  0.219621
   scf:    2   -28215.854634   -28215.920439   -28215.955096  0.039678 -4.978670  0.607403
   scf:    3   -28215.955615   -28215.950555   -28215.985213  0.030552 -4.987519  0.030813
   scf:    4   -28215.951127   -28215.950872   -28215.985529  0.001800 -4.986126  0.014619
   scf:    5   -28215.951026   -28215.950964   -28215.985621  0.001376 -4.984801  0.005092
   scf:    6   -28215.950979   -28215.950972   -28215.985629  0.000334 -4.984429  0.003030
   scf:    7   -28215.950978   -28215.950975   -28215.985632  0.000249 -4.984136  0.000878
   scf:    8   -28215.950976   -28215.950975   -28215.985633  0.000092 -4.984014  0.000395

SCF Convergence by DM+H criterion
max |DM_out - DM_in|         :     0.0000918100
max |H_out - H_in|      (eV) :     0.0003954975
SCF cycle converged after 8 iterations

Using DM_out to compute the final energy and forces
No. of atoms with KB's overlaping orbs in proc 0. Max # of overlaps:       7      75

siesta: E_KS(eV) =           -28215.9510

siesta: Atomic forces (eV/Ang):
----------------------------------------
   Tot    0.000541    0.000541   -0.000372
----------------------------------------
   Max    0.839121
   Res    0.415914    sqrt( Sum f_i^2 / 3N )
----------------------------------------
   Max    0.839121    constrained

Stress tensor Voigt[x,y,z,yz,xz,xy] (kbar):        0.02        0.02        0.05       -0.11       -0.11        0.15
(Free)E + p*V (eV/cell)   -28216.1323
Target enthalpy (eV/cell)   -28215.9856

                     ====================================
                        Begin CG opt. move =     12
                     ====================================

outcell: Unit cell vectors (Ang):
       20.000000    0.000000    0.000000
        0.000000   20.000000    0.000000
        0.000000    0.000000   20.000000

outcell: Cell vector modules (Ang)   :   20.000000   20.000000   20.000000
outcell: Cell angles (23,13,12) (deg):     90.0000     90.0000     90.0000
outcell: Cell volume (Ang**3)        :   8000.0000
<dSpData1D:S at geom step 12
  <sparsity:sparsity for geom step 12
    nrows_g=133 nrows=133 sparsity=.9143 nnzs=16173, refcount: 7>
  <dData1D:(new from dSpData1D) n=16173, refcount: 1>
refcount: 1>
new_DM -- step:    13
Re-using DM from previous geometries...
Number of DMs in history: 1
 DM extrapolation coefficients: 
1   1.00000
New DM after history re-use:
<dSpData2D:SpM extrapolated using coords
  <sparsity:sparsity for geom step 12
    nrows_g=133 nrows=133 sparsity=.9143 nnzs=16173, refcount: 9>
  <dData2D:(temp array for extrapolation) n=16173 m=1, refcount: 1>
refcount: 1>
No. of atoms with KB's overlaping orbs in proc 0. Max # of overlaps:       7      78

InitMesh: MESH = 216 x 216 x 216 = 10077696
InitMesh: Mesh cutoff (required, used) =   300.000   322.366 Ry
New grid distribution [1]: sub = 2

        iscf     Eharris(eV)        E_KS(eV)     FreeEng(eV)     dDmax    Ef(eV) dHmax(eV)
   scf:    1   -28214.823237   -28215.995243   -28216.029901  0.090205 -5.002414  0.214409
   scf:    2   -28215.922528   -28215.976809   -28216.011466  0.045563 -5.026473  0.554514
   scf:    3   -28216.006151   -28216.001626   -28216.036283  0.033705 -5.010875  0.030767
   scf:    4   -28216.002136   -28216.001909   -28216.036566  0.001803 -5.012359  0.012699
   scf:    5   -28216.002039   -28216.001986   -28216.036644  0.001451 -5.013537  0.003984
   scf:    6   -28216.001999   -28216.001993   -28216.036650  0.000332 -5.013794  0.002397
   scf:    7   -28216.001999   -28216.001996   -28216.036653  0.000272 -5.014031  0.000810
   scf:    8   -28216.001997   -28216.001996   -28216.036654  0.000081 -5.014114  0.000361

SCF Convergence by DM+H criterion
max |DM_out - DM_in|         :     0.0000811842
max |H_out - H_in|      (eV) :     0.0003607516
SCF cycle converged after 8 iterations

Using DM_out to compute the final energy and forces
No. of atoms with KB's overlaping orbs in proc 0. Max # of overlaps:       7      78

siesta: E_KS(eV) =           -28216.0020

siesta: Atomic forces (eV/Ang):
----------------------------------------
   Tot    0.000617    0.000617    0.002044
----------------------------------------
   Max    0.425607
   Res    0.205376    sqrt( Sum f_i^2 / 3N )
----------------------------------------
   Max    0.425607    constrained

Stress tensor Voigt[x,y,z,yz,xz,xy] (kbar):       -0.05       -0.05        0.08       -0.07       -0.07        0.02
(Free)E + p*V (eV/cell)   -28216.0044
Target enthalpy (eV/cell)   -28216.0367

cgvc: Finished line minimization    4.  Mean atomic displacement =    0.1744

                     ====================================
                        Begin CG opt. move =     13
                     ====================================

outcell: Unit cell vectors (Ang):
       20.000000    0.000000    0.000000
        0.000000   20.000000    0.000000
        0.000000    0.000000   20.000000

outcell: Cell vector modules (Ang)   :   20.000000   20.000000   20.000000
outcell: Cell angles (23,13,12) (deg):     90.0000     90.0000     90.0000
outcell: Cell volume (Ang**3)        :   8000.0000
<dSpData1D:S at geom step 13
  <sparsity:sparsity for geom step 13
    nrows_g=133 nrows=133 sparsity=.8933 nnzs=15801, refcount: 7>
  <dData1D:(new from dSpData1D) n=15801, refcount: 1>
refcount: 1>
new_DM -- step:    14
Re-using DM from previous geometries...
Number of DMs in history: 1
 DM extrapolation coefficients: 
1   1.00000
New DM after history re-use:
<dSpData2D:SpM extrapolated using coords
  <sparsity:sparsity for geom step 13
    nrows_g=133 nrows=133 sparsity=.8933 nnzs=15801, refcount: 9>
  <dData2D:(temp array for extrapolation) n=15801 m=1, refcount: 1>
refcount: 1>
No. of atoms with KB's overlaping orbs in proc 0. Max # of overlaps:       7      75

InitMesh: MESH = 216 x 216 x 216 = 10077696
InitMesh: Mesh cutoff (required, used) =   300.000   322.366 Ry
New grid distribution [1]: sub = 2

        iscf     Eharris(eV)        E_KS(eV)     FreeEng(eV)     dDmax    Ef(eV) dHmax(eV)
   scf:    1   -28217.006530   -28216.070368   -28216.105026  0.145634 -5.030425  0.687845
   scf:    2   -28215.403285   -28215.872355   -28215.907012  0.159961 -4.978476  2.511924
   scf:    3   -28216.127839   -28216.087019   -28216.121677  0.125386 -5.014510  0.042997
   scf:    4   -28216.087459   -28216.087261   -28216.121919  0.001929 -5.011056  0.020882
   scf:    5   -28216.087420   -28216.087352   -28216.122009  0.001670 -5.008304  0.006467
   scf:    6   -28216.087374   -28216.087363   -28216.122021  0.000405 -5.007688  0.003798
   scf:    7   -28216.087371   -28216.087367   -28216.122025  0.000272 -5.007318  0.001712
   scf:    8   -28216.087369   -28216.087368   -28216.122025  0.000079 -5.007184  0.000588

SCF Convergence by DM+H criterion
max |DM_out - DM_in|         :     0.0000787854
max |H_out - H_in|      (eV) :     0.0005881503
SCF cycle converged after 8 iterations

Using DM_out to compute the final energy and forces
No. of atoms with KB's overlaping orbs in proc 0. Max # of overlaps:       7      75

siesta: E_KS(eV) =           -28216.0874

siesta: Atomic forces (eV/Ang):
----------------------------------------
   Tot   -0.000576   -0.000577   -0.001531
----------------------------------------
   Max    0.247251
   Res    0.152510    sqrt( Sum f_i^2 / 3N )
----------------------------------------
   Max    0.247251    constrained

Stress tensor Voigt[x,y,z,yz,xz,xy] (kbar):        0.05        0.05        0.02       -0.11       -0.11        0.06
(Free)E + p*V (eV/cell)   -28216.3280
Target enthalpy (eV/cell)   -28216.1220

                     ====================================
                        Begin CG opt. move =     14
                     ====================================

outcell: Unit cell vectors (Ang):
       20.000000    0.000000    0.000000
        0.000000   20.000000    0.000000
        0.000000    0.000000   20.000000

outcell: Cell vector modules (Ang)   :   20.000000   20.000000   20.000000
outcell: Cell angles (23,13,12) (deg):     90.0000     90.0000     90.0000
outcell: Cell volume (Ang**3)        :   8000.0000
<dSpData1D:S at geom step 14
  <sparsity:sparsity for geom step 14
    nrows_g=133 nrows=133 sparsity=.8975 nnzs=15875, refcount: 7>
  <dData1D:(new from dSpData1D) n=15875, refcount: 1>
refcount: 1>
new_DM -- step:    15
Re-using DM from previous geometries...
Number of DMs in history: 1
 DM extrapolation coefficients: 
1   1.00000
New DM after history re-use:
<dSpData2D:SpM extrapolated using coords
  <sparsity:sparsity for geom step 14
    nrows_g=133 nrows=133 sparsity=.8975 nnzs=15875, refcount: 9>
  <dData2D:(temp array for extrapolation) n=15875 m=1, refcount: 1>
refcount: 1>
No. of atoms with KB's overlaping orbs in proc 0. Max # of overlaps:       7      89

InitMesh: MESH = 216 x 216 x 216 = 10077696
InitMesh: Mesh cutoff (required, used) =   300.000   322.366 Ry
New grid distribution [1]: sub = 2

        iscf     Eharris(eV)        E_KS(eV)     FreeEng(eV)     dDmax    Ef(eV) dHmax(eV)
   scf:    1   -28216.609715   -28216.065556   -28216.100214  0.177742 -5.006030  0.842730
   scf:    2   -28214.653347   -28215.642300   -28215.676957  0.251262 -4.958946  3.328330
   scf:    3   -28216.182407   -28216.095389   -28216.130047  0.196329 -4.994075  0.041863
   scf:    4   -28216.095810   -28216.095620   -28216.130277  0.001987 -4.990703  0.020848
   scf:    5   -28216.095793   -28216.095717   -28216.130374  0.001766 -4.987899  0.006688
   scf:    6   -28216.095744   -28216.095731   -28216.130388  0.000419 -4.987112  0.003930
   scf:    7   -28216.095739   -28216.095735   -28216.130393  0.000255 -4.986692  0.001355
   scf:    8   -28216.095736   -28216.095736   -28216.130393  0.000077 -4.986585  0.000508

SCF Convergence by DM+H criterion
max |DM_out - DM_in|         :     0.0000773835
max |H_out - H_in|      (eV) :     0.0005076745
SCF cycle converged after 8 iterations

Using DM_out to compute the final energy and forces
No. of atoms with KB's overlaping orbs in proc 0. Max # of overlaps:       7      89

siesta: E_KS(eV) =           -28216.0957

siesta: Atomic forces (eV/Ang):
----------------------------------------
   Tot    0.000604    0.000604   -0.002784
----------------------------------------
   Max    0.596563
   Res    0.281791    sqrt( Sum f_i^2 / 3N )
----------------------------------------
   Max    0.596563    constrained

Stress tensor Voigt[x,y,z,yz,xz,xy] (kbar):        0.20        0.20       -0.10       -0.16       -0.16        0.11
(Free)E + p*V (eV/cell)   -28216.6232
Target enthalpy (eV/cell)   -28216.1304

                     ====================================
                        Begin CG opt. move =     15
                     ====================================

outcell: Unit cell vectors (Ang):
       20.000000    0.000000    0.000000
        0.000000   20.000000    0.000000
        0.000000    0.000000   20.000000

outcell: Cell vector modules (Ang)   :   20.000000   20.000000   20.000000
outcell: Cell angles (23,13,12) (deg):     90.0000     90.0000     90.0000
outcell: Cell volume (Ang**3)        :   8000.0000
<dSpData1D:S at geom step 15
  <sparsity:sparsity for geom step 15
    nrows_g=133 nrows=133 sparsity=.8913 nnzs=15767, refcount: 7>
  <dData1D:(new from dSpData1D) n=15767, refcount: 1>
refcount: 1>
new_DM -- step:    16
Re-using DM from previous geometries...
Number of DMs in history: 1
 DM extrapolation coefficients: 
1   1.00000
New DM after history re-use:
<dSpData2D:SpM extrapolated using coords
  <sparsity:sparsity for geom step 15
    nrows_g=133 nrows=133 sparsity=.8913 nnzs=15767, refcount: 9>
  <dData2D:(temp array for extrapolation) n=15767 m=1, refcount: 1>
refcount: 1>
No. of atoms with KB's overlaping orbs in proc 0. Max # of overlaps:       7      79

InitMesh: MESH = 216 x 216 x 216 = 10077696
InitMesh: Mesh cutoff (required, used) =   300.000   322.366 Ry
New grid distribution [1]: sub = 2

        iscf     Eharris(eV)        E_KS(eV)     FreeEng(eV)     dDmax    Ef(eV) dHmax(eV)
   scf:    1   -28215.680030   -28216.098646   -28216.133304  0.077373 -4.988136  0.415048
   scf:    2   -28215.774728   -28216.001682   -28216.036339  0.118809 -5.006532  1.559560
   scf:    3   -28216.125926   -28216.105551   -28216.140208  0.094978 -4.994900  0.015702
   scf:    4   -28216.105637   -28216.105597   -28216.140254  0.000809 -4.995944  0.008734
   scf:    5   -28216.105636   -28216.105620   -28216.140277  0.000974 -4.997205  0.002716
   scf:    6   -28216.105623   -28216.105621   -28216.140279  0.000098 -4.997357  0.001688
   scf:    7   -28216.105623   -28216.105622   -28216.140279  0.000117 -4.997525  0.000367
   scf:    8   -28216.105622   -28216.105622   -28216.140279  0.000020 -4.997538  0.000134

SCF Convergence by DM+H criterion
max |DM_out - DM_in|         :     0.0000202767
max |H_out - H_in|      (eV) :     0.0001337477
SCF cycle converged after 8 iterations

Using DM_out to compute the final energy and forces
No. of atoms with KB's overlaping orbs in proc 0. Max # of overlaps:       7      79

siesta: E_KS(eV) =           -28216.1056

siesta: Atomic forces (eV/Ang):
----------------------------------------
   Tot   -0.000875   -0.000876    0.000050
----------------------------------------
   Max    0.421196
   Res    0.202972    sqrt( Sum f_i^2 / 3N )
----------------------------------------
   Max    0.421196    constrained

Stress tensor Voigt[x,y,z,yz,xz,xy] (kbar):        0.13        0.13       -0.04       -0.13       -0.13        0.09
(Free)E + p*V (eV/cell)   -28216.4957
Target enthalpy (eV/cell)   -28216.1403

cgvc: Finished line minimization    5.  Mean atomic displacement =    0.1845

outcoor: Final (unrelaxed) atomic coordinates (Ang):        
    0.11094852    0.11094865    0.45081255   1       1  Au
   -0.26287458    2.50884345    1.71807648   1       2  Au
    2.50884344   -0.26287449    1.71807644   1       3  Au
    2.17528934    2.17528925    0.35301964   1       4  Au
    4.05946876    4.05946883    3.79428888   1       5  Au
    4.10441819    1.90474028    2.24051611   1       6  Au
    1.90474030    4.10441818    2.24051606   1       7  Au

coxmol: Writing XMOL coordinates into file AuRel.xyz                                                                                                                                                                                                                           

siesta: Program's energy decomposition (eV):
siesta: Ebs     =     -4679.553085
siesta: Eions   =     35544.686385
siesta: Ena     =      3582.308035
siesta: Ekin    =      8109.393261
siesta: Enl     =       478.346027
siesta: Eso     =         0.000000
siesta: Edftu   =         0.000000
siesta: DEna    =       107.573059
siesta: DUscf   =         2.396726
siesta: DUext   =         0.000000
siesta: Ex      =     -4670.270805
siesta: Ec      =      -281.165540
siesta: Exc     =     -4951.436344
siesta: EbV     =         0.000000
siesta: eta*DQ  =         0.000000
siesta: Emadel  =         0.000000
siesta: Emeta   =         0.000000
siesta: Emolmec =         0.000000
siesta: Ekinion =         0.000000
siesta: Eharris =    -28216.105622
siesta: Etot    =    -28216.105622
siesta: FreeEng =    -28216.140279

siesta: Final energy (eV):
siesta:  Band Struct. =   -4679.553085
siesta:       Kinetic =    8109.393261
siesta:       Hartree =   36922.214219
siesta:         Edftu =       0.000000
siesta:       Eso     =       0.000000
siesta:    Ext. field =       0.000000
siesta:         Exch. =   -4670.270805
siesta:         Corr. =    -281.165540
siesta:     Bulk bias =       0.000000
siesta:   Exch.-corr. =   -4951.436344
siesta:  Ion-electron =  -83088.115930
siesta:       Ion-ion =   14791.839172
siesta:       Ekinion =       0.000000
siesta: D3 dispersion =       0.000000
siesta:         Total =  -28216.105622
siesta:         Fermi =      -4.997538

siesta: Atomic forces (eV/Ang):
siesta:      1    0.125763    0.125763    0.092885
siesta:      2    0.246969    0.146452   -0.212691
siesta:      3    0.146451    0.246968   -0.212691
siesta:      4   -0.421196   -0.421195    0.088408
siesta:      5    0.196897    0.196897    0.199734
siesta:      6   -0.131983   -0.163775    0.022203
siesta:      7   -0.163776   -0.131984    0.022202
siesta: ----------------------------------------
siesta:    Tot   -0.000875   -0.000876    0.000050

siesta: Stress tensor (static) (eV/Ang**3):
siesta:     0.000080    0.000056   -0.000084
siesta:     0.000056    0.000080   -0.000084
siesta:    -0.000084   -0.000084   -0.000027

siesta: Cell volume =       8000.000000 Ang**3

siesta: Pressure (static):
siesta:                Solid            Molecule  Units
siesta:          -0.00000048          0.00000002  Ry/Bohr**3
siesta:          -0.00004443          0.00000161  eV/Ang**3
siesta:          -0.07118993          0.00258560  kBar
(Free)E+ p_basis*V_orbitals  =      -28207.853312
(Free)Eharris+ p_basis*V_orbitals  =      -28207.853312

siesta: Electric dipole (a.u.)  =   -0.122515   -0.122515    0.075149
siesta: Electric dipole (Debye) =   -0.311401   -0.311401    0.191010

cite: Please indicate the Siesta version in published work: 5.2.2
cite: This calculation has made use of features in the following articles
cite: which we encourage you to cite in published work.
cite: (Please see "AuRel.bib" for a BibTeX file.)
        Primary SIESTA paper
          DOI: www.doi.org/10.1088/0953-8984/14/11/302
        PSML pseudopotential format
          DOI: www.doi.org/10.1016/j.cpc.2018.02.011


timer: Elapsed wall time (sec) =    1141.374
timer: CPU execution times (sec):

Routine            Calls   Time/call    Tot.time        %
siesta                 1    1167.512    1167.512   100.00
Setup                  1       0.152       0.152     0.01
bands                  1       0.000       0.000     0.00
KSV_init               1       0.000       0.000     0.00
IterGeom              16      72.959    1167.345    99.99
geom_init             16      11.275     180.396    15.45
state_init            16       0.036       0.579     0.05
hsparse               16       0.001       0.020     0.00
overlap               16       0.032       0.513     0.04
Setup_H0              16       5.643      90.289     7.73
naefs                 32       0.000       0.003     0.00
dnaefs                32       0.000       0.001     0.00
MolMec                32       0.000       0.000     0.00
kinefsm               32       0.026       0.826     0.07
nlefsm                32       0.077       2.451     0.21
DHSCF_Init            16       5.491      87.853     7.52
DHSCF1                16       0.164       2.620     0.22
InitMesh              16       0.164       2.619     0.22
INITMESH              16       0.000       0.000     0.00
DHSCF2                16       5.327      85.233     7.30
REMESH                16       0.307       4.906     0.42
REORD                586       0.037      21.641     1.85
PHION                 16       2.751      44.021     3.77
COMM_BSC             740       0.031      22.581     1.93
POISON               189       1.762     332.962    28.52
fft                  378       0.717     270.951    23.21
setup_H              157       5.778     907.090    77.69
DHSCF                173       6.196    1071.887    91.81
DHSCF3               173       5.781    1000.145    85.66
rhoofd               173       0.714     123.475    10.58
XC                   173       2.283     394.995    33.83
GXC-CellXC           173       2.153     372.414    31.90
gridxc@cellXC        173       2.153     372.409    31.90
vmat                 173       0.497      85.983     7.36
IterSCF              141       5.820     820.679    70.29
compute_dm           141       0.021       2.940     0.25
diagon               141       0.021       2.920     0.25
r-eigvec             141       0.011       1.550     0.13
r-buildHS            141       0.000       0.023     0.00
rdiag                141       0.011       1.527     0.13
rdiag1               141       0.000       0.056     0.00
rdiag2               141       0.001       0.172     0.01
rdiag3               141       0.007       0.970     0.08
rdiag4               141       0.002       0.313     0.03
r-buildD             141       0.009       1.336     0.11
MIXER                125       0.000       0.040     0.00
PostSCF               16      10.384     166.148    14.23
FINAL_HF              16      10.384     166.146    14.23
DHSCF4                16       4.484      71.741     6.14
dfscf                 16       3.625      58.000     4.97
overfsm               16       0.012       0.189     0.02
writeHSX              16       0.001       0.013     0.00
state_analysis        16       0.001       0.019     0.00
siesta_move           16       0.006       0.092     0.01
Analysis               1       0.006       0.006     0.00
optical                1       0.000       0.000     0.00
  

>> End of run:   1-JUL-2025  19:33:39
Job completed
Job completed
