Executable      : siesta
Version         : 5.2.2
Architecture    : x86_64
Compiler version: GNU-13.3.0
Compiler flags  : -march=nocona -mtune=haswell -ftree-vectorize -fPIC -fstack-protector-strong -fno-plt -O2 -ffunction-sections -pipe -isystem <prefix>/include -I<prefix>/_build_env/include -fdebug-prefix-map=<prefix>/work=/usr/local/src/conda/siesta-5.2.2 -fdebug-prefix-map=<prefix>=/usr/local/src/conda-prefix -I<prefix>/lib -fallow-argument-mismatch -O3
Parallelisations: none
NetCDF support
NetCDF-4 support
Lua support
DFT-D3 support

Runtime information:
* Directory : /mnt/c/Users/jfarr/SSN/ProjectSim/Au_optical/AuR_6
* Running in serial mode.
>> Start of run:   1-JUL-2025  23:50:48

                           *********************** 
                           *  WELCOME TO SIESTA  * 
                           *********************** 

 NOTE: Siesta V5 introduces some new defaults for basis-set generation
 NOTE: which might lead to slightly different numerical results.
 NOTE: Please see the manual for full details and compatibility measures.


reinit: Reading from file optics.fdf

reinit: -----------------------------------------------------------------------
reinit: System Name: 
reinit: -----------------------------------------------------------------------
reinit: System Label: AuPlas
reinit: -----------------------------------------------------------------------

initatom: Reading input for the pseudopotentials and atomic orbitals ----------
Species number:   1 Atomic number:   79 Label: Au

Ground state valence configuration (from tables):   6s01  6p00  5d10  5f00

---- Processing specs for species: Au
Reading pseudopotential information in PSML from:
  Au.psml
PSML file version: 1.1
Using libxc ids:  101 130
GGA--PBE XC_GGA_X_PBE--XC_GGA_C_PBE pb
PSML uuid: fa497b30-be45-11e7-41fb-494093d7a025
Semicore shell(s) with  8 electrons included in the valence for Au

---- Pseudopotential check for Au

Pseudized shells:
5s( 2.00) rc: 1.46
5p( 6.00) rc: 1.56
5d(10.00) rc: 1.56
5f( 0.00) rc: 1.60
Valence configuration for ps generation: 5s:5p:5d:6s: Total charge:  19.000000
Semicore shell(s): 5s 5p
Fallback to non-perturbative polarization scheme for Au
Please see the manual if this is not desired in principle
For Au, standard SIESTA heuristics set lmxkb to 3
 (one more than the basis l, including polarization orbitals).
Use PS.lmax or PS.KBprojectors blocks to override.

<basis_specs>
===============================================================================
Au                   Z=  79    Mass=  196.97        Charge= 0.17977+309
Lmxo=2 Lmxkb= 3    BasisType=split      Semic=T
L=0  Nsemic=1  Cnfigmx=6
          i=1  nzeta=1  polorb=0  (5s)  (semicore shell)
            splnorm:   0.15000    
               vcte:    40.000    
               rinn:  -0.90000    
               qcoe:    0.0000    
               qyuk:    0.0000    
               qwid:   0.10000E-01
                rcs:    0.0000    
            lambdas:    1.0000    
          i=2  nzeta=2  polorb=0  (6s)  (to be polarized non-perturbatively)
            splnorm:   0.15000    
               vcte:    40.000    
               rinn:  -0.90000    
               qcoe:    0.0000    
               qyuk:    0.0000    
               qwid:   0.10000E-01
                rcs:    0.0000      0.0000    
            lambdas:    1.0000      1.0000    
L=1  Nsemic=1  Cnfigmx=6
          i=1  nzeta=1  polorb=0  (5p)  (semicore shell)
            splnorm:   0.15000    
               vcte:    40.000    
               rinn:  -0.90000    
               qcoe:    0.0000    
               qyuk:    0.0000    
               qwid:   0.10000E-01
                rcs:    0.0000    
            lambdas:    1.0000    
          i=2  nzeta=1  polorb=0  (6p)  (non-perturbative polarization shell)
            splnorm:   0.15000    
               vcte:    40.000    
               rinn:  -0.90000    
               qcoe:    0.0000    
               qyuk:   0.49407-323
               qwid:   0.44466-322
                rcs:    0.0000    
            lambdas:    1.0000    
L=2  Nsemic=0  Cnfigmx=5
          i=1  nzeta=2  polorb=0  (5d)
            splnorm:   0.15000    
               vcte:    40.000    
               rinn:  -0.90000    
               qcoe:    0.0000    
               qyuk:    0.0000    
               qwid:   0.10000E-01
                rcs:    0.0000      0.0000    
            lambdas:    1.0000      1.0000    
-------------------------------------------------------------------------------
L=0  Nkbl=2  erefs: 0.17977+309 0.17977+309
L=1  Nkbl=2  erefs: 0.17977+309 0.17977+309
L=2  Nkbl=1  erefs: 0.17977+309
L=3  Nkbl=1  erefs: 0.17977+309
===============================================================================
</basis_specs>

Using PAO.SplitTailNorm
atom: Called for Au                    (Z =  79)
Maximum radius (at nrval) set to   50.00000 8518

read_vps: Pseudopotential generation method:
read_vps: ONCVPSP-3.Hamann's oncvpsp                        
Valence charge in pseudo generation:   19.00000

read_vps: Pseudopotential includes a core correction:
read_vps: Pseudo-core for xc-correction

xc_check: Exchange-correlation functional:
xc_check: GGA Perdew, Burke & Ernzerhof 1996
Got Vlocal (oncv-fit) from psml data
Choosing vlocal chloc cutoff:  5.037181
qtot up to nchloc:   18.99999407
atom: Maximum radius for chlocal:    5.03718
atom: Maximum radius for r*vlocal+2*Zval:    5.03718
Reading KB projs from Au psml data
Using scalar-relativistic projectors in PSML file

PSML: Kleinman-Bylander projectors: 
   l= 0   rc=  1.474132   Ekb= 18.815768
   l= 0   rc=  1.474132   Ekb= -0.390506
   l= 1   rc=  1.583336   Ekb=  4.781134
   l= 1   rc=  1.583336   Ekb= -3.699696
   l= 2   rc=  1.583336   Ekb=  2.968821
   l= 2   rc=  1.583336   Ekb=  0.574456
   l= 3   rc=  1.622038   Ekb=  2.312314

PSML: Total number of  Kleinman-Bylander projectors:  25
atom: -------------------------------------------------------------------------

atom: SANKEY-TYPE ORBITALS:
atom: Selected multiple-zeta basis: split     

SPLIT: Orbitals with angular momentum L= 0

SPLIT: Basis orbitals for state 5s

SPLIT: PAO cut-off radius determined from an
SPLIT: energy shift=  0.007350 Ry
Split based on tail norm

   izeta = 1
                 lambda =    1.000000
                     rc =    2.496356
                 energy =   -7.956837
                kinetic =    2.932320
    potential(screened) =  -10.889157
       potential(ionic) =  -37.521094

SPLIT: Basis orbitals for state 6s

SPLIT: PAO cut-off radius determined from an
SPLIT: energy shift=  0.007350 Ry
Split based on tail norm

   izeta = 1
                 lambda =    1.000000
                     rc =    6.367842
                 energy =   -0.528830
                kinetic =    1.553999
    potential(screened) =   -2.082829
       potential(ionic) =  -17.860940

   izeta = 2
                 rmatch =    4.534101
              splitnorm =    0.150000
                 energy =   -0.335475
                kinetic =    2.817838
    potential(screened) =   -3.153313
       potential(ionic) =  -21.809442

SPLIT: Orbitals with angular momentum L= 1

SPLIT: Basis orbitals for state 5p

SPLIT: PAO cut-off radius determined from an
SPLIT: energy shift=  0.007350 Ry
Split based on tail norm

   izeta = 1
                 lambda =    1.000000
                     rc =    2.948936
                 energy =   -4.385717
                kinetic =    5.010103
    potential(screened) =   -9.395820
       potential(ionic) =  -34.819590

SPLIT: Basis orbitals for state 6p
SPLIT: Non-perturbative polarization orbs for state 6s
SPLIT: rc(1st zeta) (re)set to: 6.3678 (expansion factor: 1.0000)
Split based on tail norm

   izeta = 1
                 lambda =    1.000000
                     rc =    6.367842
                 energy =    0.038994
                kinetic =    1.172479
    potential(screened) =   -1.133485
       potential(ionic) =  -13.471603

SPLIT: Orbitals with angular momentum L= 2

SPLIT: Basis orbitals for state 5d

SPLIT: PAO cut-off radius determined from an
SPLIT: energy shift=  0.007350 Ry
Split based on tail norm

   izeta = 1
                 lambda =    1.000000
                     rc =    4.868461
                 energy =   -0.497216
                kinetic =    5.063426
    potential(screened) =   -5.560642
       potential(ionic) =  -26.932879

   izeta = 2
                 rmatch =    3.185776
              splitnorm =    0.150000
                 energy =   -0.335401
                kinetic =    6.477604
    potential(screened) =   -6.813005
       potential(ionic) =  -29.947526
atom: Total number of Sankey-type orbitals: 19

atm_pop: Valence configuration (for local Pseudopot. screening):
 5s( 2.00) 6s( 1.00)                                                  
 5p( 6.00) 6p( 0.00)                                                  
 5d(10.00)                                                            
Vna: chval, zval:   19.00000  19.00000

Vna:  Cut-off radius for the neutral-atom potential:   6.367842
comcore: Pseudo-core radius Rcore=  2.583037

atom: _________________________________________________________________________

prinput: Basis input 

PAO.BasisType split     

%block ChemicalSpeciesLabel
    1   79 Au                      # Species index, atomic number, species label
%endblock ChemicalSpeciesLabel

%block PAO.Basis                 # Define Basis set
# WARNING: This information might be incomplete!
Au                    5                    # Species label, number of l-shells
 n=5   0   1                         # n, l, Nzeta 
   2.496   
   1.000   
 n=6   0   2                         # n, l, Nzeta 
   6.368      4.534   
   1.000      1.000   
 n=5   1   1                         # n, l, Nzeta 
   2.949   
   1.000   
 n=6   1   1                         # n, l, Nzeta 
   6.368   
   1.000   
 n=5   2   2                         # n, l, Nzeta 
   4.868      3.186   
   1.000      1.000   
%endblock PAO.Basis

prinput: ----------------------------------------------------------------------

Dumping basis to NetCDF file Au.ion.nc
coor:   Atomic-coordinates input format  =     Cartesian coordinates
coor:                                          (in Angstroms)

siesta: Atomic coordinates (Bohr) and species
siesta:     -0.97785  -0.97786   0.91377  1        1
siesta:      0.06848   3.73918   3.25125  1        2
siesta:      3.73917   0.06848   3.25125  1        3
siesta:      4.30103   4.30102   0.18803  1        4
siesta:      0.81292   7.82432   0.14142  1        5
siesta:      7.82431   0.81293   0.14142  1        6

siesta: System type = molecule  

initatomlists: Number of atoms, orbitals, and projectors:      6   114   150

coxmol: Writing XMOL coordinates into file AuPlas.xyz                                                                                                                                                                                                                          

siesta: ******************** Simulation parameters ****************************
siesta:
siesta: The following are some of the parameters of the simulation.
siesta: A complete list of the parameters used, including default values,
siesta: can be found in file out.fdf
siesta:
redata: Spin configuration                          = none
redata: Number of spin components                   = 1
redata: Time-Reversal Symmetry                      = T
redata: Spin spiral                                 = F
redata: Long output                                 =   F
redata: Number of Atomic Species                    =        1
redata: Charge density info will appear in .RHO file
redata: Write Mulliken charges (when)               = none
redata: Write Mulliken Pop.                         = NO
redata: Write Hirshfeld charges (when)              = none
redata: Write Voronoi charges (when)                = none
redata: Write spin charge (when)                    = none
redata: Matel table size (NRTAB)                    =     1024
redata: Mesh Cutoff                                 =   300.0000 Ry
redata: Net charge of the system                    =     0.0000 |e|
redata: Min. number of SCF Iter                     =        0
redata: Max. number of SCF Iter                     =     1000
redata: SCF convergence failure will abort job
redata: SCF mix quantity                            = Hamiltonian
redata: Mix DM or H after convergence               =   F
redata: Recompute H after scf cycle                 =   F
redata: Mix DM in first SCF step                    =   T
redata: Write Pulay info on disk                    =   F
redata: New DM Occupancy tolerance                  = 0.000000000001
redata: No kicks to SCF
redata: DM Mixing Weight for Kicks                  =     0.5000
redata: Require Harris convergence for SCF          =   F
redata: Harris energy tolerance for SCF             =     0.000100 eV
redata: Require DM convergence for SCF              =   T
redata: DM tolerance for SCF                        =     0.000100
redata: Require EDM convergence for SCF             =   F
redata: EDM tolerance for SCF                       =     0.001000 eV
redata: Require H convergence for SCF               =   T
redata: Hamiltonian tolerance for SCF               =     0.001000 eV
redata: Require (free) Energy convergence for SCF   =   F
redata: (free) Energy tolerance for SCF             =     0.000100 eV
redata: Using DFT-D3 dispersion                     =   F
redata: Using Saved Data (generic)                  =   F
redata: Use continuation files for DM               =   T
redata: Neglect nonoverlap interactions             =   F
redata: Method of Calculation                       = Diagonalization
redata: Electronic Temperature                      =   300.0000 K
redata: Fix the spin of the system                  =   F
redata: Max. number of TDED Iter                    =        1
redata: Number of TDED substeps                     =        3
redata: Dynamics option                             = Single-point calculation
mix.SCF: Pulay mixing                            = Pulay
mix.SCF:    Variant                              = stable
mix.SCF:    History steps                        = 2
mix.SCF:    Linear mixing weight                 =     0.250000
mix.SCF:    Mixing weight                        =     0.250000
mix.SCF:    SVD condition                        = 0.1000E-07
redata: Save all siesta data in one NC              =   F
redata: ***********************************************************************

%block SCF.Mixers
  Pulay
%endblock SCF.Mixers

%block SCF.Mixer.Pulay
  # Mixing method
  method pulay
  variant stable

  # Mixing options
  weight 0.2500
  weight.linear 0.2500
  history 2
%endblock SCF.Mixer.Pulay

DM_history_depth set to one: no extrapolation allowed by default for geometry relaxation
Size of DM history Fstack: 1
Total number of electrons:   114.000000
Total ionic charge:   114.000000

siesta: k-grid: Number of k-points = 1
siesta: k-point is Gamma-only

diag: Algorithm                                     = D&C
diag: Used triangular part                          = Lower
diag: Absolute tolerance                            =  0.100E-15
diag: Orthogonalization factor                      =  0.100E-05
diag: Memory factor                                 =  1.0000


ts: **************************************************************
ts: Save H and S matrices                           =    F
ts: Save DM and EDM matrices                        =    F
ts: Only save the overlap matrix S                  =    F
ts: **************************************************************

************************ Begin: TS CHECKS AND WARNINGS ************************
************************ End: TS CHECKS AND WARNINGS **************************


                     ====================================
                        Single-point calculation
                     ====================================

outcell: Unit cell vectors (Ang):
       20.000000    0.000000    0.000000
        0.000000   20.000000    0.000000
        0.000000    0.000000   20.000000

outcell: Cell vector modules (Ang)   :   20.000000   20.000000   20.000000
outcell: Cell angles (23,13,12) (deg):     90.0000     90.0000     90.0000
outcell: Cell volume (Ang**3)        :   8000.0000
<dSpData1D:S at geom step 0
  <sparsity:sparsity for geom step 0
    nrows_g=114 nrows=114 sparsity=.8247 nnzs=10718, refcount: 7>
  <dData1D:(new from dSpData1D) n=10718, refcount: 1>
refcount: 1>
new_DM -- step:     1
Initializing Density Matrix...

Attempting to read DM from file... Failed...
DM filled with atomic data:
<dSpData2D:DM initialized from atoms
  <sparsity:sparsity for geom step 0
    nrows_g=114 nrows=114 sparsity=.8247 nnzs=10718, refcount: 8>
  <dData2D:DM n=10718 m=1, refcount: 1>
refcount: 1>
No. of atoms with KB's overlaping orbs in proc 0. Max # of overlaps:       6      63

InitMesh: MESH = 216 x 216 x 216 = 10077696
InitMesh: Mesh cutoff (required, used) =   300.000   322.366 Ry
New grid distribution [1]: sub = 2

stepf: Fermi-Dirac step function

siesta: Program's energy decomposition (eV):
siesta: Ebs     =     -4646.516002
siesta: Eions   =     30466.874044
siesta: Ena     =      2972.550712
siesta: Ekin    =      6598.689561
siesta: Enl     =       395.557968
siesta: Eso     =         0.000000
siesta: Edftu   =         0.000000
siesta: DEna    =       472.422329
siesta: DUscf   =        35.697038
siesta: DUext   =         0.000000
siesta: Ex      =     -3928.056394
siesta: Ec      =      -238.927285
siesta: Exc     =     -4166.983678
siesta: EbV     =         0.000000
siesta: eta*DQ  =         0.000000
siesta: Emadel  =         0.000000
siesta: Emeta   =         0.000000
siesta: Emolmec =         0.000000
siesta: Ekinion =         0.000000
siesta: Eharris =    -24126.082933
siesta: Etot    =    -24158.940115
siesta: FreeEng =    -24158.942380

        iscf     Eharris(eV)        E_KS(eV)     FreeEng(eV)     dDmax    Ef(eV) dHmax(eV)
   scf:    1   -24126.082933   -24158.940115   -24158.942380  2.199031 -1.725000 16.745640
timer: Routine,Calls,Time,% = IterSCF        1       3.068  27.05
   scf:    2   -24187.452048   -24176.926172   -24176.926172  1.103238 -3.406630  5.234514
   scf:    3   -24179.156007   -24178.354263   -24178.354263  0.270451 -3.855530  1.488138
   scf:    4   -24178.526366   -24178.467521   -24178.467521  0.126941 -3.992566  0.408619
   scf:    5   -24178.483346   -24178.476838   -24178.476838  0.014612 -4.020849  0.130719
   scf:    6   -24178.480610   -24178.478962   -24178.478962  0.008183 -4.040647  0.061165
   scf:    7   -24178.479706   -24178.479414   -24178.479414  0.006166 -4.056754  0.018798
   scf:    8   -24178.479490   -24178.479454   -24178.479454  0.001742 -4.062884  0.011648
   scf:    9   -24178.479488   -24178.479473   -24178.479473  0.001193 -4.067665  0.005396
   scf:   10   -24178.479480   -24178.479477   -24178.479477  0.000261 -4.069603  0.001710
   scf:   11   -24178.479479   -24178.479478   -24178.479478  0.000080 -4.070077  0.001176
   scf:   12   -24178.479479   -24178.479479   -24178.479479  0.000128 -4.070159  0.000768
   scf:   13   -24178.479479   -24178.479479   -24178.479479  0.000108 -4.070098  0.000512
   scf:   14   -24178.479479   -24178.479479   -24178.479479  0.000091 -4.069981  0.000299

SCF Convergence by DM+H criterion
max |DM_out - DM_in|         :     0.0000911326
max |H_out - H_in|      (eV) :     0.0002992649
SCF cycle converged after 14 iterations

Using DM_out to compute the final energy and forces
No. of atoms with KB's overlaping orbs in proc 0. Max # of overlaps:       6      63

siesta: E_KS(eV) =           -24178.4795

siesta: E_KS - E_eggbox =    -24178.4795

siesta: Atomic forces (eV/Ang):
----------------------------------------
   Tot    0.003485    0.003485    0.000837
----------------------------------------
   Max    1.115021
   Res    0.580416    sqrt( Sum f_i^2 / 3N )
----------------------------------------
   Max    1.115021    constrained

Stress tensor Voigt[x,y,z,yz,xz,xy] (kbar):        0.58        0.58        0.56        0.11        0.11        0.18
(Free)E + p*V (eV/cell)   -24181.3456
Target enthalpy (eV/cell)   -24178.4795

coxmol: Writing XMOL coordinates into file AuPlas.xyz                                                                                                                                                                                                                          

siesta: Program's energy decomposition (eV):
siesta: Ebs     =     -3872.060391
siesta: Eions   =     30466.874044
siesta: Ena     =      2972.550712
siesta: Ekin    =      6976.519940
siesta: Enl     =       404.618788
siesta: Eso     =         0.000000
siesta: Edftu   =         0.000000
siesta: DEna    =       179.214103
siesta: DUscf   =         5.291908
siesta: DUext   =         0.000000
siesta: Ex      =     -4008.470361
siesta: Ec      =      -241.330525
siesta: Exc     =     -4249.800886
siesta: EbV     =         0.000000
siesta: eta*DQ  =         0.000000
siesta: Emadel  =         0.000000
siesta: Emeta   =         0.000000
siesta: Emolmec =         0.000000
siesta: Ekinion =         0.000000
siesta: Eharris =    -24178.479479
siesta: Etot    =    -24178.479479
siesta: FreeEng =    -24178.479479

siesta: Final energy (eV):
siesta:  Band Struct. =   -3872.060391
siesta:       Kinetic =    6976.519940
siesta:       Hartree =   29877.206993
siesta:         Edftu =       0.000000
siesta:       Eso     =       0.000000
siesta:    Ext. field =       0.000000
siesta:         Exch. =   -4008.470361
siesta:         Corr. =    -241.330525
siesta:     Bulk bias =       0.000000
siesta:   Exch.-corr. =   -4249.800886
siesta:  Ion-electron =  -67556.065194
siesta:       Ion-ion =   10773.659668
siesta:       Ekinion =       0.000000
siesta: D3 dispersion =       0.000000
siesta:         Total =  -24178.479479
siesta:         Fermi =      -4.069981

siesta: Atomic forces (eV/Ang):
siesta:      1    0.941724    0.941732    1.115021
siesta:      2   -0.186645   -0.390671   -0.995203
siesta:      3   -0.390677   -0.186661   -0.995177
siesta:      4    0.023467    0.023584    0.036307
siesta:      5    0.024744   -0.409193    0.419950
siesta:      6   -0.409128    0.024694    0.419939
siesta: ----------------------------------------
siesta:    Tot    0.003485    0.003485    0.000837

siesta: Stress tensor (static) (eV/Ang**3):
siesta:     0.000362    0.000111    0.000071
siesta:     0.000111    0.000362    0.000071
siesta:     0.000071    0.000071    0.000351

siesta: Cell volume =       8000.000000 Ang**3

siesta: Pressure (static):
siesta:                Solid            Molecule  Units
siesta:          -0.00000390          0.00000001  Ry/Bohr**3
siesta:          -0.00035827          0.00000103  eV/Ang**3
siesta:          -0.57400915          0.00164713  kBar
(Free)E+ p_basis*V_orbitals  =      -24174.766931
(Free)Eharris+ p_basis*V_orbitals  =      -24174.766931

siesta: Electric dipole (a.u.)  =   -0.179690   -0.179693   -0.056023
siesta: Electric dipole (Debye) =   -0.456727   -0.456735   -0.142397

Optical: Performing optical calculation: 

Optical: Polarization type       = polarized   
Optical: Minimum of energy range =   0.5880 Ry 
Optical: Maximum of energy range =   0.5880 Ry 
Optical: Gaussian broadening     =   0.0000 Ry 
Optical: Scissor operator        =   0.2205 Ry 
Optical: Number of bands         =      114
Optical: Number of electrons     =      114
Optical: BZ mesh dimensions      =    1   1   1

Optical: electric field direction
Optical:      0.89443     0.00000     0.44721

Optical: Checking f-sum rule  0.000000
Optical: For insulators and closed shell systems
Optical: this number should be close to 1 if an enough
Optical: number of unoccupied bands have been included

cite: Please indicate the Siesta version in published work: 5.2.2
cite: This calculation has made use of features in the following articles
cite: which we encourage you to cite in published work.
cite: (Please see "AuPlas.bib" for a BibTeX file.)
        Primary SIESTA paper
          DOI: www.doi.org/10.1088/0953-8984/14/11/302
        PSML pseudopotential format
          DOI: www.doi.org/10.1016/j.cpc.2018.02.011


timer: Elapsed wall time (sec) =      82.399
timer: CPU execution times (sec):

Routine            Calls   Time/call    Tot.time        %
siesta                 1      83.829      83.829   100.00
Setup                  1       0.140       0.140     0.17
bands                  1       0.000       0.000     0.00
KSV_init               1       0.000       0.000     0.00
IterGeom               1      77.115      77.115    91.99
geom_init              1       8.132       8.132     9.70
state_init             1       0.349       0.349     0.42
hsparse                1       0.000       0.000     0.00
overlap                1       0.346       0.346     0.41
Setup_H0               1       5.059       5.059     6.04
naefs                  2       0.000       0.001     0.00
dnaefs                 2       0.000       0.000     0.00
MolMec                 2       0.000       0.000     0.00
kinefsm                2       0.229       0.458     0.55
nlefsm                 2       0.896       1.792     2.14
DHSCF_Init             1       2.866       2.866     3.42
DHSCF1                 1       0.080       0.080     0.10
InitMesh               1       0.080       0.080     0.10
INITMESH               1       0.000       0.000     0.00
DHSCF2                 1       2.785       2.785     3.32
REMESH                 1       0.077       0.077     0.09
REORD                 47       0.042       1.977     2.36
PHION                  1       0.738       0.738     0.88
COMM_BSC              67       0.035       2.319     2.77
POISON                17       1.867      31.739    37.86
fft                   34       0.781      26.563    31.69
setup_H               15       4.222      63.332    75.55
DHSCF                 16       4.465      71.437    85.22
DHSCF3                16       4.295      68.719    81.97
rhoofd                16       0.239       3.817     4.55
XC                    16       1.388      22.215    26.50
GXC-CellXC            16       1.227      19.633    23.42
gridxc@cellXC         16       1.227      19.633    23.42
vmat                  16       0.174       2.790     3.33
IterSCF               14       4.341      60.773    72.50
compute_dm            14       0.011       0.148     0.18
diagon                14       0.011       0.147     0.18
r-eigvec              14       0.006       0.081     0.10
r-buildHS             14       0.000       0.001     0.00
rdiag                 15       0.006       0.084     0.10
rdiag1                15       0.000       0.003     0.00
rdiag2                15       0.001       0.008     0.01
rdiag3                15       0.004       0.053     0.06
rdiag4                15       0.001       0.019     0.02
r-buildD              14       0.005       0.065     0.08
MIXER                 13       0.000       0.003     0.00
PostSCF                1       8.203       8.203     9.78
FINAL_HF               1       8.203       8.203     9.78
DHSCF4                 1       2.719       2.719     3.24
dfscf                  1       1.683       1.683     2.01
overfsm                1       0.012       0.012     0.01
writeHSX               1       0.001       0.001     0.00
state_analysis         1       0.005       0.005     0.01
siesta_move            1       0.000       0.000     0.00
Analysis               1       6.571       6.571     7.84
optical                1       6.565       6.565     7.83
phirphiopt             1       6.558       6.558     7.82
transrate              1       0.000       0.000     0.00
  

>> End of run:   1-JUL-2025  23:52:12
Job completed
Job completed
