Executable      : siesta
Version         : 5.2.2
Architecture    : x86_64
Compiler version: GNU-13.3.0
Compiler flags  : -march=nocona -mtune=haswell -ftree-vectorize -fPIC -fstack-protector-strong -fno-plt -O2 -ffunction-sections -pipe -isystem <prefix>/include -I<prefix>/_build_env/include -fdebug-prefix-map=<prefix>/work=/usr/local/src/conda/siesta-5.2.2 -fdebug-prefix-map=<prefix>=/usr/local/src/conda-prefix -I<prefix>/lib -fallow-argument-mismatch -O3
Parallelisations: none
NetCDF support
NetCDF-4 support
Lua support
DFT-D3 support

Runtime information:
* Directory : /mnt/c/Users/jfarr/SSN/ProjectSim/anatase_surface_relaxed/run_3z_head
* Running in serial mode.
>> Start of run:  12-JUN-2025  14:38:26

                           *********************** 
                           *  WELCOME TO SIESTA  * 
                           *********************** 

 NOTE: Siesta V5 introduces some new defaults for basis-set generation
 NOTE: which might lead to slightly different numerical results.
 NOTE: Please see the manual for full details and compatibility measures.


reinit: Reading from file relaxation.fdf

reinit: -----------------------------------------------------------------------
reinit: System Name: 
reinit: -----------------------------------------------------------------------
reinit: System Label: SurRel
reinit: -----------------------------------------------------------------------

initatom: Reading input for the pseudopotentials and atomic orbitals ----------
Species number:   1 Atomic number:   22 Label: Ti
Species number:   2 Atomic number:    8 Label: O

Ground state valence configuration (from tables):   4s02  4p00  3d02  4f00
Ground state valence configuration (from tables):   2s02  2p04  3d00  4f00

---- Processing specs for species: Ti
Reading pseudopotential information in PSML from:
  Ti.psml
PSML file version: 1.1
Using libxc ids:  101 130
GGA--PBE XC_GGA_X_PBE--XC_GGA_C_PBE pb
PSML uuid: caed23e0-be41-11e7-4603-0bd897f88bea
Semicore shell(s) with  8 electrons included in the valence for Ti

---- Processing specs for species: O
Reading pseudopotential information in PSML from:
  O.psml
PSML file version: 1.1
Using libxc ids:  101 130
GGA--PBE XC_GGA_X_PBE--XC_GGA_C_PBE pb
PSML uuid: 3cff85a0-be41-11e7-6c5c-1b1fe64d18ef

---- Pseudopotential check for Ti

Pseudized shells:
3s( 2.00) rc: 1.36
3p( 6.00) rc: 1.31
3d( 2.00) rc: 1.66
Valence configuration for ps generation: 3s:3p:3d:4s: Total charge:  12.000000
Semicore shell(s): 3s 3p
Fallback to non-perturbative polarization scheme for Ti
Please see the manual if this is not desired in principle

---- Pseudopotential check for O 

Pseudized shells:
2s( 2.00) rc: 1.36
2p( 4.00) rc: 1.46
3d( 0.00) rc: 1.26
Valence configuration for ps generation: 2s:2p: Total charge:   6.000000
For Ti, standard SIESTA heuristics set lmxkb to 3
 (one more than the basis l, including polarization orbitals).
Use PS.lmax or PS.KBprojectors blocks to override.
For O, standard SIESTA heuristics set lmxkb to 3
 (one more than the basis l, including polarization orbitals).
Use PS.lmax or PS.KBprojectors blocks to override.
Ti pseudopotential only contains V_ls up to l=2 -- lmxkb reset.
O pseudopotential only contains V_ls up to l=2 -- lmxkb reset.

<basis_specs>
===============================================================================
Ti                   Z=  22    Mass=  47.867        Charge= 0.17977+309
Lmxo=2 Lmxkb= 2    BasisType=split      Semic=T
L=0  Nsemic=1  Cnfigmx=4
          i=1  nzeta=1  polorb=0  (3s)  (semicore shell)
            splnorm:   0.15000    
               vcte:    40.000    
               rinn:  -0.90000    
               qcoe:    0.0000    
               qyuk:    0.0000    
               qwid:   0.10000E-01
                rcs:    0.0000    
            lambdas:    1.0000    
          i=2  nzeta=2  polorb=0  (4s)  (to be polarized non-perturbatively)
            splnorm:   0.15000    
               vcte:    40.000    
               rinn:  -0.90000    
               qcoe:    0.0000    
               qyuk:    0.0000    
               qwid:   0.10000E-01
                rcs:    0.0000      0.0000    
            lambdas:    1.0000      1.0000    
L=1  Nsemic=1  Cnfigmx=4
          i=1  nzeta=1  polorb=0  (3p)  (semicore shell)
            splnorm:   0.15000    
               vcte:    40.000    
               rinn:  -0.90000    
               qcoe:    0.0000    
               qyuk:    0.0000    
               qwid:   0.10000E-01
                rcs:    0.0000    
            lambdas:    1.0000    
          i=2  nzeta=1  polorb=0  (4p)  (non-perturbative polarization shell)
            splnorm:   0.15000    
               vcte:    40.000    
               rinn:  -0.90000    
               qcoe:    0.0000    
               qyuk:   0.49407-323
               qwid:   0.44466-322
                rcs:    0.0000    
            lambdas:    1.0000    
L=2  Nsemic=0  Cnfigmx=3
          i=1  nzeta=2  polorb=0  (3d)
            splnorm:   0.15000    
               vcte:    40.000    
               rinn:  -0.90000    
               qcoe:    0.0000    
               qyuk:    0.0000    
               qwid:   0.10000E-01
                rcs:    0.0000      0.0000    
            lambdas:    1.0000      1.0000    
-------------------------------------------------------------------------------
L=0  Nkbl=2  erefs: 0.17977+309 0.17977+309
L=1  Nkbl=2  erefs: 0.17977+309 0.17977+309
L=2  Nkbl=1  erefs: 0.17977+309
===============================================================================
</basis_specs>

Using PAO.SplitTailNorm
atom: Called for Ti                    (Z =  22)
Maximum radius (at nrval) set to   50.00000 8518

read_vps: Pseudopotential generation method:
read_vps: ONCVPSP-3.Hamann's oncvpsp                        
Valence charge in pseudo generation:   12.00000

read_vps: Pseudopotential includes a core correction:
read_vps: Pseudo-core for xc-correction

xc_check: Exchange-correlation functional:
xc_check: GGA Perdew, Burke & Ernzerhof 1996
Got Vlocal (oncv-fit) from psml data
Choosing vlocal chloc cutoff:  3.029916
qtot up to nchloc:   12.00014688
atom: Maximum radius for chlocal:    3.02992
atom: Maximum radius for r*vlocal+2*Zval:    3.02992
Reading KB projs from Ti psml data
Using scalar-relativistic projectors in PSML file

PSML: Kleinman-Bylander projectors: 
   l= 0   rc=  1.375180   Ekb= 22.724697
   l= 0   rc=  1.375180   Ekb=  2.527278
   l= 1   rc=  1.326200   Ekb=  3.950805
   l= 1   rc=  1.327537   Ekb= -0.169333
   l= 2   rc=  1.683555   Ekb=-10.372181
   l= 2   rc=  1.683555   Ekb= -2.954901

PSML: Total number of  Kleinman-Bylander projectors:  18
atom: -------------------------------------------------------------------------

atom: SANKEY-TYPE ORBITALS:
atom: Selected multiple-zeta basis: split     

SPLIT: Orbitals with angular momentum L= 0

SPLIT: Basis orbitals for state 3s

SPLIT: PAO cut-off radius determined from an
SPLIT: energy shift=  0.022050 Ry
Split based on tail norm

   izeta = 1
                 lambda =    1.000000
                     rc =    2.635420
                 energy =   -4.579527
                kinetic =    2.326942
    potential(screened) =   -6.906469
       potential(ionic) =  -23.072621

SPLIT: Basis orbitals for state 4s

SPLIT: PAO cut-off radius determined from an
SPLIT: energy shift=  0.022050 Ry
Split based on tail norm

   izeta = 1
                 lambda =    1.000000
                     rc =    6.843982
                 energy =   -0.314441
                kinetic =    0.796941
    potential(screened) =   -1.111382
       potential(ionic) =   -8.916637

   izeta = 2
                 rmatch =    5.301264
              splitnorm =    0.150000
                 energy =   -0.140155
                kinetic =    1.418596
    potential(screened) =   -1.558752
       potential(ionic) =  -10.896893

SPLIT: Orbitals with angular momentum L= 1

SPLIT: Basis orbitals for state 3p

SPLIT: PAO cut-off radius determined from an
SPLIT: energy shift=  0.022050 Ry
Split based on tail norm

   izeta = 1
                 lambda =    1.000000
                     rc =    2.931236
                 energy =   -2.832213
                kinetic =    5.021608
    potential(screened) =   -7.853821
       potential(ionic) =  -23.570229

SPLIT: Basis orbitals for state 4p
SPLIT: Non-perturbative polarization orbs for state 4s
SPLIT: rc(1st zeta) (re)set to: 6.8440 (expansion factor: 1.0000)
Split based on tail norm

   izeta = 1
                 lambda =    1.000000
                     rc =    6.843982
                 energy =   -0.022664
                kinetic =    0.981182
    potential(screened) =   -1.003846
       potential(ionic) =   -7.925992

SPLIT: Orbitals with angular momentum L= 2

SPLIT: Basis orbitals for state 3d

SPLIT: PAO cut-off radius determined from an
SPLIT: energy shift=  0.022050 Ry
Split based on tail norm

   izeta = 1
                 lambda =    1.000000
                     rc =    4.556878
                 energy =   -0.289178
                kinetic =    6.761259
    potential(screened) =   -7.050436
       potential(ionic) =  -20.805830

   izeta = 2
                 rmatch =    3.163483
              splitnorm =    0.150000
                 energy =   -0.141333
                kinetic =    8.704185
    potential(screened) =   -8.845518
       potential(ionic) =  -23.898466
atom: Total number of Sankey-type orbitals: 19

atm_pop: Valence configuration (for local Pseudopot. screening):
 3s( 2.00) 4s( 2.00)                                                  
 3p( 6.00) 4p( 0.00)                                                  
 3d( 2.00)                                                            
Vna: chval, zval:   12.00000  12.00000

Vna:  Cut-off radius for the neutral-atom potential:   6.843982
comcore: Pseudo-core radius Rcore=  1.766828

atom: _________________________________________________________________________

<basis_specs>
===============================================================================
O                    Z=   8    Mass=  15.999        Charge= 0.17977+309
Lmxo=2 Lmxkb= 2    BasisType=split      Semic=F
L=0  Nsemic=0  Cnfigmx=2
          i=1  nzeta=2  polorb=0  (2s)
            splnorm:   0.15000    
               vcte:    40.000    
               rinn:  -0.90000    
               qcoe:    0.0000    
               qyuk:    0.0000    
               qwid:   0.10000E-01
                rcs:    0.0000      0.0000    
            lambdas:    1.0000      1.0000    
L=1  Nsemic=0  Cnfigmx=2
          i=1  nzeta=2  polorb=1  (2p)  (to be polarized perturbatively)
            splnorm:   0.15000    
               vcte:    40.000    
               rinn:  -0.90000    
               qcoe:    0.0000    
               qyuk:    0.0000    
               qwid:   0.10000E-01
                rcs:    0.0000      0.0000    
            lambdas:    1.0000      1.0000    
L=2  Nsemic=0  Cnfigmx=3
          i=1  nzeta=0  polorb=0  (3d)  (perturbative polarization orbital) (from 2p)
-------------------------------------------------------------------------------
L=0  Nkbl=1  erefs: 0.17977+309
L=1  Nkbl=1  erefs: 0.17977+309
L=2  Nkbl=1  erefs: 0.17977+309
===============================================================================
</basis_specs>

Using PAO.SplitTailNorm
atom: Called for O                     (Z =   8)
Maximum radius (at nrval) set to   50.00000 8518

read_vps: Pseudopotential generation method:
read_vps: ONCVPSP-3.Hamann's oncvpsp                        
Valence charge in pseudo generation:    6.00000

read_vps: Pseudopotential includes a core correction:
read_vps: Pseudo-core for xc-correction

xc_check: Exchange-correlation functional:
xc_check: GGA Perdew, Burke & Ernzerhof 1996
Got Vlocal (oncv-fit) from psml data
Choosing vlocal chloc cutoff:  6.020499
qtot up to nchloc:    6.00001015
atom: Maximum radius for chlocal:    6.02050
atom: Maximum radius for r*vlocal+2*Zval:    6.02050
Reading KB projs from O psml data
Using scalar-relativistic projectors in PSML file

PSML: Kleinman-Bylander projectors: 
   l= 0   rc=  1.372412   Ekb= 12.113471
   l= 0   rc=  1.372412   Ekb=  1.648048
   l= 1   rc=  1.474132   Ekb= -9.434259
   l= 1   rc=  1.474132   Ekb= -2.298541
   l= 2   rc=  1.277664   Ekb= -2.663910

PSML: Total number of  Kleinman-Bylander projectors:  13
atom: -------------------------------------------------------------------------

atom: SANKEY-TYPE ORBITALS:
atom: Selected multiple-zeta basis: split     

SPLIT: Orbitals with angular momentum L= 0

SPLIT: Basis orbitals for state 2s

SPLIT: PAO cut-off radius determined from an
SPLIT: energy shift=  0.022050 Ry
Split based on tail norm

   izeta = 1
                 lambda =    1.000000
                     rc =    3.214667
                 energy =   -1.737143
                kinetic =    1.647372
    potential(screened) =   -3.384514
       potential(ionic) =  -11.335845

   izeta = 2
                 rmatch =    2.206279
              splitnorm =    0.150000
                 energy =   -1.248930
                kinetic =    2.868486
    potential(screened) =   -4.117415
       potential(ionic) =  -12.788572

SPLIT: Orbitals with angular momentum L= 1

SPLIT: Basis orbitals for state 2p

SPLIT: PAO cut-off radius determined from an
SPLIT: energy shift=  0.022050 Ry
Split based on tail norm

   izeta = 1
                 lambda =    1.000000
                     rc =    3.819866
                 energy =   -0.639970
                kinetic =    4.771237
    potential(screened) =   -5.411207
       potential(ionic) =  -13.142963

   izeta = 2
                 rmatch =    2.601252
              splitnorm =    0.150000
                 energy =   -0.382093
                kinetic =    6.846164
    potential(screened) =   -7.228258
       potential(ionic) =  -15.727266

POLgen: Perturbative polarization orbital with L=  2

POLgen: Polarization orbital for state 2p
Split based on tail norm

   izeta = 1
                     rc =    3.819866
                 energy =    2.500658
                kinetic =    4.605602
    potential(screened) =   -2.104944
       potential(ionic) =   -8.455031
atom: Total number of Sankey-type orbitals: 13

atm_pop: Valence configuration (for local Pseudopot. screening):
 2s( 2.00)                                                            
 2p( 4.00)                                                            
 3d( 0.00)                                                            
Vna: chval, zval:    6.00000   6.00000

Vna:  Cut-off radius for the neutral-atom potential:   3.819866
comcore: Pseudo-core radius Rcore=  1.354557

atom: _________________________________________________________________________

prinput: Basis input 

PAO.BasisType split     

%block ChemicalSpeciesLabel
    1   22 Ti                      # Species index, atomic number, species label
    2    8 O                       # Species index, atomic number, species label
%endblock ChemicalSpeciesLabel

%block PAO.Basis                 # Define Basis set
# WARNING: This information might be incomplete!
Ti                    5                    # Species label, number of l-shells
 n=3   0   1                         # n, l, Nzeta 
   2.635   
   1.000   
 n=4   0   2                         # n, l, Nzeta 
   6.844      5.301   
   1.000      1.000   
 n=3   1   1                         # n, l, Nzeta 
   2.931   
   1.000   
 n=4   1   1                         # n, l, Nzeta 
   6.844   
   1.000   
 n=3   2   2                         # n, l, Nzeta 
   4.557      3.163   
   1.000      1.000   
O                     2                    # Species label, number of l-shells
 n=2   0   2                         # n, l, Nzeta 
   3.215      2.206   
   1.000      1.000   
 n=2   1   2 P   1                   # n, l, Nzeta, Polarization, NzetaPol
   3.820      2.601   
   1.000      1.000   
%endblock PAO.Basis

prinput: ----------------------------------------------------------------------

Dumping basis to NetCDF file Ti.ion.nc
Dumping basis to NetCDF file O.ion.nc
coor:   Atomic-coordinates input format  =     Cartesian coordinates
coor:                                          (in Angstroms)

siesta: Atomic coordinates (Bohr) and species
siesta:      3.57398   3.57398   9.08488  1        1
siesta:      3.57398   0.00000  13.62733  1        2
siesta:      0.00000   0.00000   0.00000  1        3
siesta:      0.00000   3.57398   4.54245  1        4
siesta:      0.00000   3.57398   8.30635  2        5
siesta:      3.57398   3.57398  12.84878  2        6
siesta:      3.57398   0.00000   9.86341  2        7
siesta:      0.00000   0.00000  14.40585  2        8
siesta:      3.57398   0.00000  17.39123  2        9
siesta:      0.00000   0.00000   3.76390  2       10
siesta:      0.00000   3.57398   0.77853  2       11
siesta:      3.57398   3.57398   5.32098  2       12
siesta:      3.57398   3.57398  27.26404  1       13
siesta:      3.57398   0.00000  31.80649  1       14
siesta:      0.00000   0.00000  18.17917  1       15
siesta:      0.00000   3.57398  22.72161  1       16
siesta:      0.00000   3.57398  26.48551  2       17
siesta:      3.57398   3.57398  31.02794  2       18
siesta:      3.57398   0.00000  28.04257  2       19
siesta:      0.00000   0.00000  32.58502  2       20
siesta:      3.57398   0.00000  35.57039  2       21
siesta:      0.00000   0.00000  21.94307  2       22
siesta:      0.00000   3.57398  18.95769  2       23
siesta:      3.57398   3.57398  23.50014  2       24
siesta:      3.57398   3.57398  45.44321  1       25
siesta:      3.57398   0.00000  49.98566  1       26
siesta:      0.00000   0.00000  36.35833  1       27
siesta:      0.00000   3.57398  40.90078  1       28
siesta:      0.00000   3.57398  44.66468  2       29
siesta:      3.57398   3.57398  49.20711  2       30
siesta:      3.57398   0.00000  46.22174  2       31
siesta:      0.00000   0.00000  50.76419  2       32
siesta:      3.57398   0.00000  53.74956  2       33
siesta:      0.00000   0.00000  40.12223  2       34
siesta:      0.00000   3.57398  37.13686  2       35
siesta:      3.57398   3.57398  41.67931  2       36

siesta: System type = slab      

initatomlists: Number of atoms, orbitals, and projectors:     36   540   528

coxmol: Writing XMOL coordinates into file SurRel.xyz                                                                                                                                                                                                                          

siesta: ******************** Simulation parameters ****************************
siesta:
siesta: The following are some of the parameters of the simulation.
siesta: A complete list of the parameters used, including default values,
siesta: can be found in file out.fdf
siesta:
redata: Spin configuration                          = none
redata: Number of spin components                   = 1
redata: Time-Reversal Symmetry                      = T
redata: Spin spiral                                 = F
redata: Long output                                 =   F
redata: Number of Atomic Species                    =        2
redata: Charge density info will appear in .RHO file
redata: Write Mulliken charges (when)               = none
redata: Write Mulliken Pop.                         = NO
redata: Write Hirshfeld charges (when)              = none
redata: Write Voronoi charges (when)                = none
redata: Write spin charge (when)                    = none
redata: Matel table size (NRTAB)                    =     1024
redata: Mesh Cutoff                                 =   300.0000 Ry
redata: Net charge of the system                    =     0.0000 |e|
redata: Min. number of SCF Iter                     =        0
redata: Max. number of SCF Iter                     =     1000
redata: SCF convergence failure will abort job
redata: SCF mix quantity                            = Hamiltonian
redata: Mix DM or H after convergence               =   F
redata: Recompute H after scf cycle                 =   F
redata: Mix DM in first SCF step                    =   T
redata: Write Pulay info on disk                    =   F
redata: New DM Occupancy tolerance                  = 0.000000000001
redata: No kicks to SCF
redata: DM Mixing Weight for Kicks                  =     0.5000
redata: Require Harris convergence for SCF          =   F
redata: Harris energy tolerance for SCF             =     0.000100 eV
redata: Require DM convergence for SCF              =   T
redata: DM tolerance for SCF                        =     0.000100
redata: Require EDM convergence for SCF             =   F
redata: EDM tolerance for SCF                       =     0.001000 eV
redata: Require H convergence for SCF               =   T
redata: Hamiltonian tolerance for SCF               =     0.001000 eV
redata: Require (free) Energy convergence for SCF   =   F
redata: (free) Energy tolerance for SCF             =     0.000100 eV
redata: Using DFT-D3 dispersion                     =   F
redata: Using Saved Data (generic)                  =   F
redata: Use continuation files for DM               =   T
redata: Neglect nonoverlap interactions             =   F
redata: Method of Calculation                       = Diagonalization
redata: Electronic Temperature                      =   300.0000 K
redata: Fix the spin of the system                  =   F
redata: Max. number of TDED Iter                    =        1
redata: Number of TDED substeps                     =        3
redata: Dynamics option                             = CG coord. optimization
redata: Variable cell                               =   F
redata: Use continuation files for CG               =   F
redata: Max atomic displ per move                   =     0.1058 Ang
redata: Maximum number of optimization moves        =       15
redata: Force tolerance                             =     0.0050 eV/Ang
mix.SCF: Pulay mixing                            = Pulay
mix.SCF:    Variant                              = stable
mix.SCF:    History steps                        = 2
mix.SCF:    Linear mixing weight                 =     0.250000
mix.SCF:    Mixing weight                        =     0.250000
mix.SCF:    SVD condition                        = 0.1000E-07
redata: Save all siesta data in one NC              =   F
redata: ***********************************************************************

%block SCF.Mixers
  Pulay
%endblock SCF.Mixers

%block SCF.Mixer.Pulay
  # Mixing method
  method pulay
  variant stable

  # Mixing options
  weight 0.2500
  weight.linear 0.2500
  history 2
%endblock SCF.Mixer.Pulay

DM_history_depth set to one: no extrapolation allowed by default for geometry relaxation
Size of DM history Fstack: 1
Total number of electrons:   288.000000
Total ionic charge:   288.000000
 Kpoints in:            6 . Kpoints trimmed:            5

siesta: k-grid: Number of k-points = 5
siesta: k-points from Monkhorst-Pack grid
siesta: k-cutoff (effective) =     5.670 Ang
siesta: k-point supercell and displacements
siesta: k-grid:     3     0     0      0.000
siesta: k-grid:     0     3     0      0.000
siesta: k-grid:     0     0     1      0.000

diag: Algorithm                                     = D&C
diag: Used triangular part                          = Lower
diag: Absolute tolerance                            =  0.100E-15
diag: Orthogonalization factor                      =  0.100E-05
diag: Memory factor                                 =  1.0000

superc: Internal auxiliary supercell:     5 x     5 x     1  =      25
superc: Number of atoms, orbitals, and projectors:    900  13500  13200


ts: **************************************************************
ts: Save H and S matrices                           =    F
ts: Save DM and EDM matrices                        =    F
ts: Only save the overlap matrix S                  =    F
ts: **************************************************************

************************ Begin: TS CHECKS AND WARNINGS ************************
************************ End: TS CHECKS AND WARNINGS **************************


                     ====================================
                        Begin CG opt. move =      0
                     ====================================

superc: Internal auxiliary supercell:     5 x     5 x     1  =      25
superc: Number of atoms, orbitals, and projectors:    900  13500  13200

outcell: Unit cell vectors (Ang):
        3.780000    0.000000    0.000000
        0.000000    3.780000    0.000000
        0.000000    0.000000   40.860000

outcell: Cell vector modules (Ang)   :    3.780000    3.780000   40.860000
outcell: Cell angles (23,13,12) (deg):     90.0000     90.0000     90.0000
outcell: Cell volume (Ang**3)        :    583.8240
<dSpData1D:S at geom step 0
  <sparsity:sparsity for geom step 0
    nrows_g=540 nrows=540 sparsity=1.1551 nnzs=336834, refcount: 7>
  <dData1D:(new from dSpData1D) n=336834, refcount: 1>
refcount: 1>
new_DM -- step:     1
Initializing Density Matrix...

Attempting to read DM from file... Failed...
DM filled with atomic data:
<dSpData2D:DM initialized from atoms
  <sparsity:sparsity for geom step 0
    nrows_g=540 nrows=540 sparsity=1.1551 nnzs=336834, refcount: 8>
  <dData2D:DM n=336834 m=1, refcount: 1>
refcount: 1>
No. of atoms with KB's overlaping orbs in proc 0. Max # of overlaps:     225     168

InitMesh: MESH = 40 x 40 x 432 = 691200
InitMesh: Mesh cutoff (required, used) =   300.000   308.939 Ry
New grid distribution [1]: sub = 2

stepf: Fermi-Dirac step function

siesta: Program's energy decomposition (eV):
siesta: Ebs     =     -6460.573493
siesta: Eions   =     44643.213711
siesta: Ena     =      6167.845938
siesta: Ekin    =     14694.138717
siesta: Enl     =     -1575.388327
siesta: Eso     =         0.000000
siesta: Edftu   =         0.000000
siesta: DEna    =       686.095694
siesta: DUscf   =       385.471702
siesta: DUext   =         0.000000
siesta: Ex      =     -5246.545988
siesta: Ec      =      -360.740892
siesta: Exc     =     -5607.286880
siesta: EbV     =         0.000000
siesta: eta*DQ  =         0.000000
siesta: Emadel  =         0.000000
siesta: Emeta   =         0.000000
siesta: Emolmec =         0.000000
siesta: Ekinion =         0.000000
siesta: Eharris =    -29346.133098
siesta: Etot    =    -29892.336868
siesta: FreeEng =    -29892.336868

        iscf     Eharris(eV)        E_KS(eV)     FreeEng(eV)     dDmax    Ef(eV) dHmax(eV)
   scf:    1   -29346.133098   -29892.336868   -29892.336868  1.743376 -4.724294120.211396
timer: Routine,Calls,Time,% = IterSCF        1       9.753  29.53
   scf:    2   630409.149962   186723.604636   186723.581023 16.105497 -5.675308**********
   scf:    3   -33311.752753   -21056.611116   -21056.645154 15.896490 -5.032313658.854503
   scf:    4  1305607.774284   383699.976186   383699.959145296.341768-10.064875**********
   scf:    5   393718.048036   109734.213449   109734.206398295.184423-15.308534**********
   scf:    6  2662948.386757   733574.405832   733574.395763354.072452********************
   scf:    7  1794910.024600   419687.436123   419687.405038354.094226-63.589107**********
   scf:    8  2909458.857460   773151.341816   773151.337536309.683224********************
   scf:    9  2770749.244083   711822.620223   711822.612259366.465102********************
   scf:   10  2873160.037970   805190.362439   805190.355073366.451015********************
   scf:   11  3817849.377774   991563.628936   991563.618685358.850358********************
   scf:   12  2627223.495255   652703.744139   652703.726531361.995893********************
   scf:   13  4376239.663671  1259007.134471  1259007.134471362.005322********************
   scf:   14  5117175.579408  1218748.985157  1218748.985094360.255414********************
   scf:   15  2237863.302302   654792.705855   654792.695708362.216684********************
   scf:   16  4564751.822394  1140071.138739  1140071.130775362.270678********************
   scf:   17  5246393.445419  1220500.418245  1220500.403794361.449880-87.854435**********
