<preamble>

<basis_specs>
===============================================================================
Au                   Z=  79    Mass=  196.97        Charge= 0.17977+309
Lmxo=2 Lmxkb= 3    BasisType=split      Semic=T
L=0  Nsemic=1  Cnfigmx=6
          i=1  nzeta=1  polorb=0  (5s)  (semicore shell)
            splnorm:   0.15000    
               vcte:    40.000    
               rinn:    2.0567    
               qcoe:    0.0000    
               qyuk:    0.0000    
               qwid:   0.10000E-01
                rcs:    2.2852    
            lambdas:    1.0000    
          i=2  nzeta=2  polorb=0  (6s)  (to be polarized non-perturbatively)
            splnorm:   0.15000    
               vcte:    40.000    
               rinn:    4.9862    
               qcoe:    0.0000    
               qyuk:    0.0000    
               qwid:   0.10000E-01
                rcs:    5.5346      4.1805    
            lambdas:    1.0000      1.0000    
L=1  Nsemic=1  Cnfigmx=6
          i=1  nzeta=1  polorb=0  (5p)  (semicore shell)
            splnorm:   0.15000    
               vcte:    40.000    
               rinn:    2.4054    
               qcoe:    0.0000    
               qyuk:    0.0000    
               qwid:   0.10000E-01
                rcs:    2.6727    
            lambdas:    1.0000    
          i=2  nzeta=1  polorb=0  (6p)  (non-perturbative polarization shell)
            splnorm:   0.15000    
               vcte:    40.000    
               rinn:    4.9862    
               qcoe:   0.19310-311
               qyuk:   0.19763-322
               qwid:   0.21220-312
                rcs:    5.5346    
            lambdas:    1.0000    
L=2  Nsemic=0  Cnfigmx=5
          i=1  nzeta=2  polorb=0  (5d)
            splnorm:   0.15000    
               vcte:    40.000    
               rinn:    3.7512    
               qcoe:    0.0000    
               qyuk:    0.0000    
               qwid:   0.10000E-01
                rcs:    4.1638      2.9401    
            lambdas:    1.0000      1.0000    
-------------------------------------------------------------------------------
L=0  Nkbl=2  erefs: 0.17977+309 0.17977+309
L=1  Nkbl=2  erefs: 0.17977+309 0.17977+309
L=2  Nkbl=1  erefs: 0.17977+309
L=3  Nkbl=1  erefs: 0.17977+309
===============================================================================
</basis_specs>

<pseudopotential_header>
 Au pb nrl pcec
 ONCVPSP-3.2017-10-31Hamann's oncvpsp                        
 5s 2.00  r= 1.46/5p 6.00  r= 1.56/5d10.00  r= 1.56/5f 0.00  r= 1.60/   5s:5p:5d:6s:
</pseudopotential_header>
</preamble>
Au                            # Symbol
Au                            # Label
   79                         # Atomic number
     19.0000000000                             # Valence charge
     196.970000000        # Mass 
     373.212323315        # Self energy 
   2   7                      # Lmax for basis, no. of nl orbitals 
   3   7                      # Lmax for projectors, no. of nl KB projectors
# PAOs:__________________________
  0  5  1  0  2.000000   #orbital l, n, z, is_polarized, population
 500    0.4579604324823113E-02     2.285222558086733     # npts, delta, cutoff
     0.000000000000000        0.9685465947241091    
    0.4579604324823113E-02    0.9685998286779161    
    0.9159208649646226E-02    0.9688512264296322    
    0.1373881297446934E-01    0.9692701107837055    
    0.1831841729929245E-01    0.9698562302815494    
    0.2289802162411557E-01    0.9706092531683065    
    0.2747762594893868E-01    0.9715287564226585    
    0.3205723027376179E-01    0.9726142244101280    
    0.3663683459858490E-01    0.9738650487872623    
    0.4121643892340802E-01    0.9752805287262117    
    0.4579604324823113E-01    0.9768598712734374    
    0.5037564757305425E-01    0.9786021917915387    
    0.5495525189787735E-01    0.9805065144669980    
    0.5953485622270047E-01    0.9825717728769936    
    0.6411446054752358E-01    0.9847968106121515    
    0.6869406487234669E-01    0.9871803819535167    
    0.7327366919716981E-01    0.9897211526026770    
    0.7785327352199292E-01    0.9924177004642262    
    0.8243287784681604E-01    0.9952685164798698    
    0.8701248217163915E-01    0.9982720055135611    
    0.9159208649646226E-01     1.001426487286998    
    0.9617169082128538E-01     1.004730197364881    
    0.1007512951461085         1.008181288189258    
    0.1053308994709316         1.011777830162300    
    0.1099105037957547         1.015517812776777    
    0.1144901081205778         1.019399145793552    
    0.1190697124454009         1.023419660465289    
    0.1236493167702240         1.027577110805634    
    0.1282289210950472         1.031869174903025    
    0.1328085254198703         1.036293456278311    
    0.1373881297446934         1.040847485285309    
    0.1419677340695165         1.045528720553386    
    0.1465473383943396         1.050334550471174    
    0.1511269427191627         1.055262294710441    
    0.1557065470439858         1.060309205789150    
    0.1602861513688089         1.065472470672717    
    0.1648657556936321         1.070749212412418    
    0.1694453600184552         1.076136491819914    
    0.1740249643432783         1.081631309176811    
    0.1786045686681014         1.087230605978144    
    0.1831841729929245         1.092931266708697    
    0.1877637773177476         1.098730120650965    
    0.1923433816425708         1.104623943723646    
    0.1969229859673939         1.110609460349438    
    0.2015025902922170         1.116683345350954    
    0.2060821946170401         1.122842225873530    
    0.2106617989418632         1.129082683333672    
    0.2152414032666863         1.135401255391894    
    0.2198210075915094         1.141794437948666    
    0.2244006119163325         1.148258687162165    
    0.2289802162411556         1.154790421486547    
    0.2335598205659788         1.161386023729393    
    0.2381394248908019         1.168041843127004    
    0.2427190292156250         1.174754197436187    
    0.2472986335404481         1.181519375041191    
    0.2518782378652712         1.188333637074400    
    0.2564578421900943         1.195193219549415    
    0.2610374465149174         1.202094335505118    
    0.2656170508397406         1.209033177159358    
    0.2701966551645636         1.216005918070805    
    0.2747762594893868         1.223008715307599    
    0.2793558638142099         1.230037711621357    
    0.2839354681390330         1.237089037625137    
    0.2885150724638561         1.244158813973916    
    0.2930946767886792         1.251243153546174    
    0.2976742811135024         1.258338163625149    
    0.3022538854383254         1.265439948078345    
    0.3068334897631486         1.272544609533865    
    0.3114130940879717         1.279648251552145    
    0.3159926984127948         1.286746980791690    
    0.3205723027376179         1.293836909167360    
    0.3251519070624410         1.300914155999847    
    0.3297315113872641         1.307974850154894    
    0.3343111157120873         1.315015132170906    
    0.3388907200369103         1.322031156373536    
    0.3434703243617335         1.329019092975877    
    0.3480499286865566         1.335975130162920    
    0.3526295330113797         1.342895476158896    
    0.3572091373362028         1.349776361276171    
    0.3617887416610259         1.356614039944394    
    0.3663683459858491         1.363404792718540    
    0.3709479503106721         1.370144928264615    
    0.3755275546354953         1.376830785321692    
    0.3801071589603184         1.383458734639058    
    0.3846867632851415         1.390025180887217    
    0.3892663676099646         1.396526564541542    
    0.3938459719347877         1.402959363737366    
    0.3984255762596108         1.409320096095354    
    0.4030051805844340         1.415605320516001    
    0.4075847849092570         1.421811638942122    
    0.4121643892340802         1.427935698088249    
    0.4167439935589033         1.433974191135844    
    0.4213235978837264         1.439923859393304    
    0.4259032022085495         1.445781493919717    
    0.4304828065333726         1.451543937111383    
    0.4350624108581957         1.457208084250163    
    0.4396420151830188         1.462770885012697    
    0.4442216195078419         1.468229344939607    
    0.4488012238326651         1.473580526863820    
    0.4533808281574882         1.478821552297177    
    0.4579604324823113         1.483949602774530    
    0.4625400368071344         1.488961921154550    
    0.4671196411319575         1.493855812876540    
    0.4716992454567807         1.498628647172536    
    0.4762788497816037         1.503277858234046    
    0.4808584541064269         1.507800946332807    
    0.4854380584312500         1.512195478894981    
    0.4900176627560731         1.516459091528216    
    0.4945972670808962         1.520589489001113    
    0.4991768714057193         1.524584446174569    
    0.5037564757305424         1.528441808884614    
    0.5083360800553656         1.532159494776320    
    0.5129156843801886         1.535735494088453    
    0.5174952887050117         1.539167870388526    
    0.5220748930298349         1.542454761258004    
    0.5266544973546580         1.545594378927422    
    0.5312341016794812         1.548585010861222    
    0.5358137060043042         1.551425020292152    
    0.5403933103291273         1.554112846705125    
    0.5449729146539505         1.556647006270461    
    0.5495525189787736         1.559026092226489    
    0.5541321233035966         1.561248775211506    
    0.5587117276284198         1.563313803545152    
    0.5632913319532429         1.565220003459286    
    0.5678709362780661         1.566966279278510    
    0.5724505406028891         1.568551613550484    
    0.5770301449277122         1.569975067126264    
    0.5816097492525354         1.571235779190891    
    0.5861893535773585         1.572332967244543    
    0.5907689579021815         1.573265927034569    
    0.5953485622270047         1.574034032438736    
    0.5999281665518278         1.574636735300135    
    0.6045077708766509         1.575073565214177    
    0.6090873752014740         1.575344129268120    
    0.6136669795262971         1.575448111733670    
    0.6182465838511203         1.575385273713196    
    0.6228261881759434         1.575155452740124    
    0.6274057925007664         1.574758562334161    
    0.6319853968255896         1.574194591511938    
    0.6365650011504127         1.573463604253802    
    0.6411446054752358         1.572565738927456    
    0.6457242098000590         1.571501207669172    
    0.6503038141248820         1.570270295723374    
    0.6548834184497052         1.568873360741371    
    0.6594630227745283         1.567310832040082    
    0.6640426270993514         1.565583209821600    
    0.6686222314241745         1.563691064354499    
    0.6732018357489976         1.561635035117762    
    0.6777814400738207         1.559415829908279    
    0.6823610443986439         1.557034223912874    
    0.6869406487234669         1.554491058745842    
    0.6915202530482900         1.551787241452958    
    0.6960998573731132         1.548923743483047    
    0.7006794616979363         1.545901599628067    
    0.7052590660227595         1.542721906932837    
    0.7098386703475825         1.539385823575440    
    0.7144182746724056         1.535894567719396    
    0.7189978789972288         1.532249416338715    
    0.7235774833220519         1.528451704016928    
    0.7281570876468749         1.524502821721254    
    0.7327366919716981         1.520404215553009    
    0.7373162962965212         1.516157385475422    
    0.7418959006213443         1.511763884020014    
    0.7464755049461674         1.507225314972109    
    0.7510551092709905         1.502543337950343    
    0.7556347135958137         1.497719654716380    
    0.7602143179206368         1.492756009218181    
    0.7647939222454598         1.487654196755820    
    0.7693735265702830         1.482416057051911    
    0.7739531308951061         1.477043472839932    
    0.7785327352199292         1.471538368441313    
    0.7831123395447523         1.465902708331676    
    0.7876919438695754         1.460138495697381    
    0.7922715481943986         1.454247770983585    
    0.7968511525192217         1.448232610434939    
    0.8014307568440447         1.442095124630123    
    0.8060103611688679         1.435837457011330    
    0.8105899654936910         1.429461782409878    
    0.8151695698185141         1.422970305569049    
    0.8197491741433373         1.416365259665304    
    0.8243287784681603         1.409648904828971    
    0.8289083827929834         1.402823526665491    
    0.8334879871178066         1.395891434778336    
    0.8380675914426297         1.388854961294635    
    0.8426471957674528         1.381716459394580    
    0.8472268000922759         1.374478301845644    
    0.8518064044170990         1.367142879542617    
    0.8563860087419222         1.359712600054492    
    0.8609656130667452         1.352189886179154    
    0.8655452173915683         1.344577174506834    
    0.8701248217163915         1.336876913993281    
    0.8747044260412146         1.329091564543579    
    0.8792840303660376         1.321223595607489    
    0.8838636346908608         1.313275484787202    
    0.8884432390156839         1.305249716458359    
    0.8930228433405071         1.297148780405157    
    0.8976024476653301         1.288975170470360    
    0.9021820519901532         1.280731383220971    
    0.9067616563149764         1.272419916630361    
    0.9113412606397995         1.264043268777547    
    0.9159208649646225         1.255603936564334    
    0.9205004692894457         1.247104414451013    
    0.9250800736142688         1.238547193211235    
    0.9296596779390920         1.229934758706733    
    0.9342392822639151         1.221269590682439    
    0.9388188865887381         1.212554161582597    
    0.9433984909135613         1.203790935388395    
    0.9479780952383844         1.194982366477646    
    0.9525576995632075         1.186130898507004    
    0.9571373038880306         1.177238963317149    
    0.9617169082128537         1.168308979861414    
    0.9662965125376768         1.159343353158213    
    0.9708761168625000         1.150344473267670    
    0.9754557211873230         1.141314714292804    
    0.9800353255121462         1.132256433405550    
    0.9846149298369693         1.123171969897964    
    0.9891945341617924         1.114063644258806    
    0.9937741384866156         1.104933757275816    
    0.9983537428114386         1.095784589163832    
     1.002933347136262         1.086618398718940    
     1.007512951461085         1.077437422498863    
     1.012092555785908         1.068243874029653    
     1.016672160110731         1.059039943038831    
     1.021251764435554         1.049827794715033    
     1.025831368760377         1.040609568994208    
     1.030410973085200         1.031387379872435    
     1.034990577410023         1.022163314745331    
     1.039570181734847         1.012939433774023    
     1.044149786059670         1.003717769277680    
     1.048729390384493        0.9945003251524835    
     1.053308994709316        0.9852890763169884    
     1.057888599034139        0.9760859681837442    
     1.062468203358962        0.9668929161570387    
     1.067047807683785        0.9577118051566369    
     1.071627412008608        0.9485444891673270    
     1.076207016333432        0.9393927908140811    
     1.080786620658255        0.9302585009625984    
     1.085366224983078        0.9211433783450240    
     1.089945829307901        0.9120491492105697    
     1.094525433632724        0.9029775070008157    
     1.099105037957547        0.8939301120493760    
     1.103684642282370        0.8849085913056205    
     1.108264246607193        0.8759145380821766    
     1.112843850932016        0.8669495118258321    
     1.117423455256840        0.8580150379115559    
     1.122003059581663        0.8491126074592337    
     1.126582663906486        0.8402436771727825    
     1.131162268231309        0.8314096692012437    
     1.135741872556132        0.8226119710214711    
     1.140321476880955        0.8138519353420304    
     1.144901081205778        0.8051308800278558    
     1.149480685530601        0.7964500880453068    
     1.154060289855424        0.7878108074271342    
     1.158639894180248        0.7792142512569793    
     1.163219498505071        0.7706615976729093    
     1.167799102829894        0.7621539898896077    
     1.172378707154717        0.7536925362386914    
     1.176958311479540        0.7452783102267380    
     1.181537915804363        0.7369123506105645    
     1.186117520129186        0.7285956614892775    
     1.190697124454009        0.7203292124126259    
     1.195276728778832        0.7121139385052037    
     1.199856333103656        0.7039507406060236    
     1.204435937428479        0.6958404854229403    
     1.209015541753302        0.6877840057015324    
     1.213595146078125        0.6797821004079327    
     1.218174750402948        0.6718355349250780    
     1.222754354727771        0.6639450412620042    
     1.227333959052594        0.6561113182756798    
     1.231913563377417        0.6483350319048559    
     1.236493167702241        0.6406168154155416    
     1.241072772027064        0.6329572696576692    
     1.245652376351887        0.6253569633323531    
     1.250231980676710        0.6178164332694137    
     1.254811585001533        0.6103361847147348    
     1.259391189326356        0.6029166916269025    
     1.263970793651179        0.5955583969827600    
     1.268550397976002        0.5882617130914851    
     1.273130002300825        0.5810270219167019    
     1.277709606625649        0.5738546754061951    
     1.282289210950472        0.5667449958288958    
     1.286868815275295        0.5596982761187462    
     1.291448419600118        0.5527147802248883    
     1.296028023924941        0.5457947434679853    
     1.300607628249764        0.5389383729022565    
     1.305187232574587        0.5321458476827473    
     1.309766836899410        0.5254173194375856    
     1.314346441224233        0.5187529126448859    
     1.318926045549057        0.5121527250138989    
     1.323505649873880        0.5056168278700791    
     1.328085254198703        0.4991452665437960    
     1.332664858523526        0.4927380607624247    
     1.337244462848349        0.4863952050453506    
     1.341824067173172        0.4801166691017576    
     1.346403671497995        0.4739023982309035    
     1.350983275822818        0.4677523137245465    
     1.355562880147641        0.4616663132712964    
     1.360142484472465        0.4556442713626647    
     1.364722088797288        0.4496860397006333    
     1.369301693122111        0.4437914476063431    
     1.373881297446934        0.4379603024298613    
     1.378460901771757        0.4321923899607850    
     1.383040506096580        0.4264874748394427    
     1.387620110421403        0.4208453009685280    
     1.392199714746226        0.4152655919250308    
     1.396779319071049        0.4097480513723351    
     1.401358923395873        0.4042923634721483    
     1.405938527720696        0.3988981932958988    
     1.410518132045519        0.3935651871788387    
     1.415097736370342        0.3882929731109917    
     1.419677340695165        0.3830811613339157    
     1.424256945019988        0.3779293448215238    
     1.428836549344811        0.3728370999836512    
     1.433416153669634        0.3678039866655795    
     1.437995757994458        0.3628295477551670    
     1.442575362319281        0.3579133092845894    
     1.447154966644104        0.3530547806655024    
     1.451734570968927        0.3482534566123583    
     1.456314175293750        0.3435088195988302    
     1.460893779618573        0.3388203424101971    
     1.465473383943396        0.3341874908201457    
     1.470052988268219        0.3296097263423292    
     1.474632592593042        0.3250865086806349    
     1.479212196917866        0.3206172980086622    
     1.483791801242689        0.3162015565086218    
     1.488371405567512        0.3118387482034087    
     1.492951009892335        0.3075283387924380    
     1.497530614217158        0.3032697950631649    
     1.502110218541981        0.2990625846075465    
     1.506689822866804        0.2949061762769202    
     1.511269427191627        0.2908000403784797    
     1.515849031516450        0.2867436489621676    
     1.520428635841274        0.2827364759988434    
     1.525008240166097        0.2787779974187141    
     1.529587844490920        0.2748676912213392    
     1.534167448815743        0.2710050375888119    
     1.538747053140566        0.2671895189900732    
     1.543326657465389        0.2634206202780383    
     1.547906261790212        0.2596978287936618    
     1.552485866115035        0.2560206344372838    
     1.557065470439858        0.2523885297555187    
     1.561645074764682        0.2488010100384882    
     1.566224679089505        0.2452575733969641    
     1.570804283414328        0.2417577208191329    
     1.575383887739151        0.2383009562316293    
     1.579963492063974        0.2348867865826012    
     1.584543096388797        0.2315147218762831    
     1.589122700713620        0.2281842752508443    
     1.593702305038443        0.2248949630776947    
     1.598281909363267        0.2216463049306327    
     1.602861513688089        0.2184378236655891    
     1.607441118012913        0.2152690454661155    
     1.612020722337736        0.2121394998563115    
     1.616600326662559        0.2090487197721141    
     1.621179930987382        0.2059962415842790    
     1.625759535312205        0.2029816051348572    
     1.630339139637028        0.2000043537413199    
     1.634918743961851        0.1970640342459873    
     1.639498348286675        0.1941601970331689    
     1.644077952611497        0.1912923960459567    
     1.648657556936321        0.1884601888149755    
     1.653237161261144        0.1856631364665544    
     1.657816765585967        0.1829008037378139    
     1.662396369910790        0.1801727589902941    
     1.666975974235613        0.1774785742191058    
     1.671555578560436        0.1748178250610698    
     1.676135182885259        0.1721900908025545    
     1.680714787210082        0.1695949543834827    
     1.685294391534906        0.1670320024001971    
     1.689873995859729        0.1645008251070457    
     1.694453600184552        0.1620010164158671    
     1.699033204509375        0.1595321738943671    
     1.703612808834198        0.1570938987629702    
     1.708192413159021        0.1546857958901616    
     1.712772017483844        0.1523074737866496    
     1.717351621808667        0.1499585445981892    
     1.721931226133490        0.1476386240971747    
     1.726510830458314        0.1453473316730622    
     1.731090434783137        0.1430842903216271    
     1.735670039107960        0.1408491266332585    
     1.740249643432783        0.1386414707801472    
     1.744829247757606        0.1364609565025265    
     1.749408852082429        0.1343072210939102    
     1.753988456407252        0.1321799053855256    
     1.758568060732075        0.1300786537298568    
     1.763147665056898        0.1280031139833714    
     1.767727269381722        0.1259529374884769    
     1.772306873706545        0.1239277790547001    
     1.776886478031368        0.1219272969392458    
     1.781466082356191        0.1199511528268294    
     1.786045686681014        0.1179990118088983    
     1.790625291005837        0.1160705423622293    
     1.795204895330660        0.1141654163269758    
     1.799784499655483        0.1122833088841822    
     1.804364103980306        0.1104238985327684    
     1.808943708305130        0.1085868670660529    
     1.813523312629953        0.1067718995477810    
     1.818102916954776        0.1049786842877780    
     1.822682521279599        0.1032069128171709    
     1.827262125604422        0.1014562798632346    
     1.831841729929245        0.9972648332388230E-01
     1.836421334254068        0.9801722424183394E-01
     1.841000938578891        0.9632820677845703E-01
     1.845580542903714        0.9465913818733103E-01
     1.850160147228538        0.9300972878753778E-01
     1.854739751553361        0.9137969193670659E-01
     1.859319355878184        0.8976874400383113E-01
     1.863898960203007        0.8817660434186468E-01
     1.868478564527830        0.8660299526012939E-01
     1.873058168852653        0.8504764199654420E-01
     1.877637773177476        0.8351027268970203E-01
     1.882217377502299        0.8199061835079358E-01
     1.886796981827123        0.8048841283539071E-01
     1.891376586151946        0.7900339281512736E-01
     1.895956190476769        0.7753529774926637E-01
     1.900535794801592        0.7608386985620769E-01
     1.905115399126415        0.7464885408488679E-01
     1.909695003451238        0.7322999808611305E-01
     1.914274607776061        0.7182705218386927E-01
     1.918854212100884        0.7043976934655320E-01
     1.923433816425707        0.6906790515823069E-01
     1.928013420750531        0.6771121778982278E-01
     1.932593025075354        0.6636946797029103E-01
     1.937172629400177        0.6504241895783884E-01
     1.941752233725000        0.6372983651109985E-01
     1.946331838049823        0.6243148886039409E-01
     1.950911442374646        0.6114714667895230E-01
     1.955491046699469        0.5987658305418828E-01
     1.960070651024292        0.5861957345902757E-01
     1.964650255349115        0.5737589572326288E-01
     1.969229859673939        0.5614533000501080E-01
     1.973809463998762        0.5492765876218585E-01
     1.978389068323585        0.5372266672404165E-01
     1.982968672648408        0.5253014086280710E-01
     1.987548276973231        0.5134987036538564E-01
     1.992127881298054        0.5018164660516746E-01
     1.996707485622877        0.4902526311391726E-01
     2.001287089947700        0.4788051555372765E-01
     2.005866694272524        0.4674720168910545E-01
     2.010446298597347        0.4562512135914875E-01
     2.015025902922170        0.4451407644983169E-01
     2.019605507246993        0.4341387086643882E-01
     2.024185111571816        0.4232431050603445E-01
     2.028764715896639        0.4124520323010775E-01
     2.033344320221462        0.4017635883732530E-01
     2.037923924546285        0.3911758903639492E-01
     2.042503528871108        0.3806870741911240E-01
     2.047083133195931        0.3702952943345045E-01
     2.051662737520755        0.3599987235683166E-01
     2.056242341845578        0.3497955526952909E-01
     2.060821946170401        0.3396839902818539E-01
     2.065401550495224        0.3296622623951000E-01
     2.069981154820047        0.3197286123418271E-01
     2.074560759144870        0.3098813006240935E-01
     2.079140363469693        0.3001186103143505E-01
     2.083719967794516        0.2904388881363474E-01
     2.088299572119340        0.2808406730608351E-01
     2.092879176444163        0.2713229192043492E-01
     2.097458780768986        0.2618852525889348E-01
     2.102038385093809        0.2525281879690694E-01
     2.106617989418632        0.2432532623887654E-01
     2.111197593743455        0.2340630771500789E-01
     2.115777198068278        0.2249612614396868E-01
     2.120356802393101        0.2159523789569945E-01
     2.124936406717925        0.2070417988051824E-01
     2.129516011042747        0.1982355482385468E-01
     2.134095615367571        0.1895401603262380E-01
     2.138675219692394        0.1809625254586942E-01
     2.143254824017217        0.1725097523189351E-01
     2.147834428342040        0.1641890414957146E-01
     2.152414032666863        0.1560075732037060E-01
     2.156993636991686        0.1479724094310492E-01
     2.161573241316509        0.1400904101068127E-01
     2.166152845641332        0.1323681624466205E-01
     2.170732449966156        0.1248119223994687E-01
     2.175312054290979        0.1174275670167390E-01
     2.179891658615802        0.1102205565455333E-01
     2.184471262940625        0.1031959050806132E-01
     2.189050867265448        0.9635815866918470E-02
     2.193630471590271        0.8971137983520181E-02
     2.198210075915094        0.8325913756331720E-02
     2.202789680239917        0.7700450185048928E-02
     2.207369284564741        0.7095004198748341E-02
     2.211948888889564        0.6509782776805613E-02
     2.216528493214386        0.5944943283154075E-02
     2.221108097539210        0.5400593931361060E-02
     2.225687701864033        0.4876794289089164E-02
     2.230267306188856        0.4373555712604511E-02
     2.234846910513679        0.3890841569297850E-02
     2.239426514838502        0.3428567048148795E-02
     2.244006119163325        0.2986598254128105E-02
     2.248585723488148        0.2564750090943461E-02
     2.253165327812972        0.2162782066692515E-02
     2.257744932137795        0.1780390397116881E-02
     2.262324536462618        0.1417193086835066E-02
     2.266904140787441        0.1072700459845712E-02
     2.271483745112264        0.7462514797895346E-03
     2.276063349437087        0.4368518956608495E-03
     2.280642953761910        0.1426137808514753E-03
     2.285222558086733         0.000000000000000    
  0  6  1  0  1.000000   #orbital l, n, z, is_polarized, population
 500    0.1109144202148480E-01     5.534629568720915     # npts, delta, cutoff
     0.000000000000000        0.6232449177554495    
    0.1109144202148480E-01    0.6234466045979107    