Executable      : siesta
Version         : 5.2.1
Architecture    : x86_64
Compiler version: GNU-13.3.0
Compiler flags  : -march=nocona -mtune=haswell -ftree-vectorize -fPIC -fstack-protector-strong -fno-plt -O2 -ffunction-sections -pipe -isystem <prefix>/include -I<prefix>/_build_env/include -fdebug-prefix-map=<prefix>/work=/usr/local/src/conda/siesta-5.2.1 -fdebug-prefix-map=<prefix>=/usr/local/src/conda-prefix -I<prefix>/lib -fallow-argument-mismatch -O3
Parallelisations: none
NetCDF support
NetCDF-4 support
Lua support
DFT-D3 support

Runtime information:
* Directory : /home/samba/homes/convidat/Desktop/Projecte-Simulaci--main/gold/run
* Running in serial mode.
>> Start of run:   4-JUN-2025  16:06:39

                           *********************** 
                           *  WELCOME TO SIESTA  * 
                           *********************** 

 NOTE: Siesta V5 introduces some new defaults for basis-set generation
 NOTE: which might lead to slightly different numerical results.
 NOTE: Please see the manual for full details and compatibility measures.


reinit: Reading from file relaxation.fdf

reinit: -----------------------------------------------------------------------
reinit: System Name: 
reinit: -----------------------------------------------------------------------
reinit: System Label: AuRel
reinit: -----------------------------------------------------------------------

initatom: Reading input for the pseudopotentials and atomic orbitals ----------
Species number:   1 Atomic number:   79 Label: Au

Ground state valence configuration (from tables):   6s01  6p00  5d10  5f00

---- Processing specs for species: Au
Reading pseudopotential information in PSML from:
  Au.psml
PSML file version: 1.1
Using libxc ids:  101 130
GGA--PBE XC_GGA_X_PBE--XC_GGA_C_PBE pb
PSML uuid: fa497b30-be45-11e7-41fb-494093d7a025
Semicore shell(s) with  8 electrons included in the valence for Au

---- Pseudopotential check for Au

Pseudized shells:
5s( 2.00) rc: 1.46
5p( 6.00) rc: 1.56
5d(10.00) rc: 1.56
5f( 0.00) rc: 1.60
Valence configuration for ps generation: 5s:5p:5d:6s: Total charge:  19.000000
Semicore shell(s): 5s 5p
Fallback to non-perturbative polarization scheme for Au
Please see the manual if this is not desired in principle
For Au, standard SIESTA heuristics set lmxkb to 3
 (one more than the basis l, including polarization orbitals).
Use PS.lmax or PS.KBprojectors blocks to override.

<basis_specs>
===============================================================================
Au                   Z=  79    Mass=  196.97        Charge= 0.17977+309
Lmxo=2 Lmxkb= 3    BasisType=split      Semic=T
L=0  Nsemic=1  Cnfigmx=6
          i=1  nzeta=1  polorb=0  (5s)  (semicore shell)
            splnorm:   0.15000    
               vcte:    40.000    
               rinn:  -0.90000    
               qcoe:    0.0000    
               qyuk:    0.0000    
               qwid:   0.10000E-01
                rcs:    0.0000    
            lambdas:    1.0000    
          i=2  nzeta=2  polorb=0  (6s)  (to be polarized non-perturbatively)
            splnorm:   0.15000    
               vcte:    40.000    
               rinn:  -0.90000    
               qcoe:    0.0000    
               qyuk:    0.0000    
               qwid:   0.10000E-01
                rcs:    0.0000      0.0000    
            lambdas:    1.0000      1.0000    
L=1  Nsemic=1  Cnfigmx=6
          i=1  nzeta=1  polorb=0  (5p)  (semicore shell)
            splnorm:   0.15000    
               vcte:    40.000    
               rinn:  -0.90000    
               qcoe:    0.0000    
               qyuk:    0.0000    
               qwid:   0.10000E-01
                rcs:    0.0000    
            lambdas:    1.0000    
          i=2  nzeta=1  polorb=0  (6p)  (non-perturbative polarization shell)
            splnorm:   0.15000    
               vcte:    40.000    
               rinn:  -0.90000    
               qcoe:   0.19310-311
               qyuk:   0.19763-322
               qwid:   0.21220-312
                rcs:    0.0000    
            lambdas:    1.0000    
L=2  Nsemic=0  Cnfigmx=5
          i=1  nzeta=2  polorb=0  (5d)
            splnorm:   0.15000    
               vcte:    40.000    
               rinn:  -0.90000    
               qcoe:    0.0000    
               qyuk:    0.0000    
               qwid:   0.10000E-01
                rcs:    0.0000      0.0000    
            lambdas:    1.0000      1.0000    
-------------------------------------------------------------------------------
L=0  Nkbl=2  erefs: 0.17977+309 0.17977+309
L=1  Nkbl=2  erefs: 0.17977+309 0.17977+309
L=2  Nkbl=1  erefs: 0.17977+309
L=3  Nkbl=1  erefs: 0.17977+309
===============================================================================
</basis_specs>

Using PAO.SplitTailNorm
atom: Called for Au                    (Z =  79)
Maximum radius (at nrval) set to   50.00000 8518

read_vps: Pseudopotential generation method:
read_vps: ONCVPSP-3.Hamann's oncvpsp                        
Valence charge in pseudo generation:   19.00000

read_vps: Pseudopotential includes a core correction:
read_vps: Pseudo-core for xc-correction

xc_check: Exchange-correlation functional:
xc_check: GGA Perdew, Burke & Ernzerhof 1996
Got Vlocal (oncv-fit) from psml data
Choosing vlocal chloc cutoff:  5.037181
qtot up to nchloc:   18.99999407
atom: Maximum radius for chlocal:    5.03718
atom: Maximum radius for r*vlocal+2*Zval:    5.03718
Reading KB projs from Au psml data
Using scalar-relativistic projectors in PSML file

PSML: Kleinman-Bylander projectors: 
   l= 0   rc=  1.474132   Ekb= 18.815768
   l= 0   rc=  1.474132   Ekb= -0.390506
   l= 1   rc=  1.583336   Ekb=  4.781134
   l= 1   rc=  1.583336   Ekb= -3.699696
   l= 2   rc=  1.583336   Ekb=  2.968821
   l= 2   rc=  1.583336   Ekb=  0.574456
   l= 3   rc=  1.622038   Ekb=  2.312314

PSML: Total number of  Kleinman-Bylander projectors:  25
atom: -------------------------------------------------------------------------

atom: SANKEY-TYPE ORBITALS:
atom: Selected multiple-zeta basis: split     

SPLIT: Orbitals with angular momentum L= 0

SPLIT: Basis orbitals for state 5s

SPLIT: PAO cut-off radius determined from an
SPLIT: energy shift=  0.022050 Ry
Split based on tail norm

   izeta = 1
                 lambda =    1.000000
                     rc =    2.285223
                 energy =   -7.940849
                kinetic =    2.998226
    potential(screened) =  -10.939075
       potential(ionic) =  -37.619374

SPLIT: Basis orbitals for state 6s

SPLIT: PAO cut-off radius determined from an
SPLIT: energy shift=  0.022050 Ry
Split based on tail norm

   izeta = 1
                 lambda =    1.000000
                     rc =    5.534630
                 energy =   -0.512358
                kinetic =    1.674143
    potential(screened) =   -2.186501
       potential(ionic) =  -18.327197

   izeta = 2
                 rmatch =    4.180541
              splitnorm =    0.150000
                 energy =   -0.216639
                kinetic =    3.239096
    potential(screened) =   -3.455735
       potential(ionic) =  -22.824107

SPLIT: Orbitals with angular momentum L= 1

SPLIT: Basis orbitals for state 5p

SPLIT: PAO cut-off radius determined from an
SPLIT: energy shift=  0.022050 Ry
Split based on tail norm

   izeta = 1
                 lambda =    1.000000
                     rc =    2.672716
                 energy =   -4.369838
                kinetic =    5.101986
    potential(screened) =   -9.471823
       potential(ionic) =  -34.975406

SPLIT: Basis orbitals for state 6p
SPLIT: Non-perturbative polarization orbs for state 6s
SPLIT: rc(1st zeta) (re)set to: 5.5346 (expansion factor: 1.0000)
Split based on tail norm

   izeta = 1
                 lambda =    1.000000
                     rc =    5.534630
                 energy =    0.119298
                kinetic =    1.499536
    potential(screened) =   -1.380238
       potential(ionic) =  -14.692011

SPLIT: Orbitals with angular momentum L= 2

SPLIT: Basis orbitals for state 5d

SPLIT: PAO cut-off radius determined from an
SPLIT: energy shift=  0.022050 Ry
Split based on tail norm

   izeta = 1
                 lambda =    1.000000
                     rc =    4.163812
                 energy =   -0.481336
                kinetic =    5.250163
    potential(screened) =   -5.731499
       potential(ionic) =  -27.404356

   izeta = 2
                 rmatch =    2.940073
              splitnorm =    0.150000
                 energy =   -0.247221
                kinetic =    6.924253
    potential(screened) =   -7.171474
       potential(ionic) =  -30.705325
atom: Total number of Sankey-type orbitals: 19

atm_pop: Valence configuration (for local Pseudopot. screening):
 5s( 2.00) 6s( 1.00)                                                  
 5p( 6.00) 6p( 0.00)                                                  
 5d(10.00)                                                            
Vna: chval, zval:   19.00000  19.00000

Vna:  Cut-off radius for the neutral-atom potential:   5.534630
comcore: Pseudo-core radius Rcore=  2.583037

atom: _________________________________________________________________________

prinput: Basis input 

PAO.BasisType split     

%block ChemicalSpeciesLabel
    1   79 Au                      # Species index, atomic number, species label
%endblock ChemicalSpeciesLabel

%block PAO.Basis                 # Define Basis set
# WARNING: This information might be incomplete!
Au                    5                    # Species label, number of l-shells
 n=5   0   1                         # n, l, Nzeta 
   2.285   
   1.000   
 n=6   0   2                         # n, l, Nzeta 
   5.535      4.181   
   1.000      1.000   
 n=5   1   1                         # n, l, Nzeta 
   2.673   
   1.000   
 n=6   1   1                         # n, l, Nzeta 
   5.535   
   1.000   
 n=5   2   2                         # n, l, Nzeta 
   4.164      2.940   
   1.000      1.000   
%endblock PAO.Basis

prinput: ----------------------------------------------------------------------

Dumping basis to NetCDF file Au.ion.nc
coor:   Atomic-coordinates input format  =     Cartesian coordinates
coor:                                          (in Angstroms)

siesta: Atomic coordinates (Bohr) and species
siesta:      0.00000   0.00000   0.00000  1        1
siesta:      0.00000   3.94129   3.94129  1        2
siesta:      3.94129   0.00000   3.94129  1        3
siesta:      3.94129   3.94129   0.00000  1        4
siesta:      0.00000   7.88260   0.00000  1        5
siesta:      0.00000  11.82388   3.94129  1        6
siesta:      3.94129   7.88260   3.94129  1        7
siesta:      3.94129  11.82388   0.00000  1        8
siesta:      7.88260   0.00000   0.00000  1        9
siesta:      7.88260   3.94129   3.94129  1       10
siesta:     11.82388   0.00000   3.94129  1       11
siesta:     11.82388   3.94129   0.00000  1       12
siesta:      7.88260   7.88260   0.00000  1       13
siesta:      7.88260  11.82388   3.94129  1       14
siesta:     11.82388   7.88260   3.94129  1       15
siesta:     11.82388  11.82388   0.00000  1       16

siesta: System type = molecule  

initatomlists: Number of atoms, orbitals, and projectors:     16   304   400

coxmol: Writing XMOL coordinates into file AuRel.xyz                                                                                                                                                                                                                           

siesta: ******************** Simulation parameters ****************************
siesta:
siesta: The following are some of the parameters of the simulation.
siesta: A complete list of the parameters used, including default values,
siesta: can be found in file out.fdf
siesta:
redata: Spin configuration                          = none
redata: Number of spin components                   = 1
redata: Time-Reversal Symmetry                      = T
redata: Spin spiral                                 = F
redata: Long output                                 =   F
redata: Number of Atomic Species                    =        1
redata: Charge density info will appear in .RHO file
redata: Write Mulliken charges (when)               = none
redata: Write Mulliken Pop.                         = NO
redata: Write Hirshfeld charges (when)              = none
redata: Write Voronoi charges (when)                = none
redata: Write spin charge (when)                    = none
redata: Matel table size (NRTAB)                    =     1024
redata: Mesh Cutoff                                 =   300.0000 Ry
redata: Net charge of the system                    =     0.0000 |e|
redata: Min. number of SCF Iter                     =        0
redata: Max. number of SCF Iter                     =     1000
redata: SCF convergence failure will abort job
redata: SCF mix quantity                            = Hamiltonian
redata: Mix DM or H after convergence               =   F
redata: Recompute H after scf cycle                 =   F
redata: Mix DM in first SCF step                    =   T
redata: Write Pulay info on disk                    =   F
redata: New DM Occupancy tolerance                  = 0.000000000001
redata: No kicks to SCF
redata: DM Mixing Weight for Kicks                  =     0.5000
redata: Require Harris convergence for SCF          =   F
redata: Harris energy tolerance for SCF             =     0.000100 eV
redata: Require DM convergence for SCF              =   T
redata: DM tolerance for SCF                        =     0.000100
redata: Require EDM convergence for SCF             =   F
redata: EDM tolerance for SCF                       =     0.001000 eV
redata: Require H convergence for SCF               =   T
redata: Hamiltonian tolerance for SCF               =     0.001000 eV
redata: Require (free) Energy convergence for SCF   =   F
redata: (free) Energy tolerance for SCF             =     0.000100 eV
redata: Using DFT-D3 dispersion                     =   F
redata: Using Saved Data (generic)                  =   F
redata: Use continuation files for DM               =   T
redata: Neglect nonoverlap interactions             =   F
redata: Method of Calculation                       = Diagonalization
redata: Electronic Temperature                      =   299.9863 K
redata: Fix the spin of the system                  =   F
redata: Max. number of TDED Iter                    =        1
redata: Number of TDED substeps                     =        3
redata: Dynamics option                             = CG coord. optimization
redata: Variable cell                               =   T
redata: Use continuation files for CG               =   F
redata: Max atomic displ per move                   =     0.1058 Ang
redata: Maximum number of optimization moves        =      100
redata: Force tolerance                             =     0.0050 eV/Ang
redata: Stress tolerance                            =     0.0100 GPa
mix.SCF: Pulay mixing                            = Pulay
mix.SCF:    Variant                              = stable
mix.SCF:    History steps                        = 2
mix.SCF:    Linear mixing weight                 =     0.250000
mix.SCF:    Mixing weight                        =     0.250000
mix.SCF:    SVD condition                        = 0.1000E-07
redata: Save all siesta data in one NC              =   F
redata: ***********************************************************************

%block SCF.Mixers
  Pulay
%endblock SCF.Mixers

%block SCF.Mixer.Pulay
  # Mixing method
  method pulay
  variant stable

  # Mixing options
  weight 0.2500
  weight.linear 0.2500
  history 2
%endblock SCF.Mixer.Pulay

DM_history_depth set to one: no extrapolation allowed by default for geometry relaxation
Size of DM history Fstack: 1
Total number of electrons:   304.000000
Total ionic charge:   304.000000
 Kpoints in:            1 . Kpoints trimmed:            1

siesta: k-grid: Number of k-points = 1
siesta: k-points from Monkhorst-Pack grid
siesta: k-cutoff (effective) =     6.043 Ang
siesta: k-point supercell and displacements
siesta: k-grid:     1     0     0      0.000
siesta: k-grid:     0     1     0      0.000
siesta: k-grid:     0     0     1      0.000

diag: Algorithm                                     = D&C
diag: Used triangular part                          = Lower
diag: Absolute tolerance                            =  0.100E-15
diag: Orthogonalization factor                      =  0.100E-05
diag: Memory factor                                 =  1.0000


ts: **************************************************************
ts: Save H and S matrices                           =    F
ts: Save DM and EDM matrices                        =    F
ts: Only save the overlap matrix S                  =    F
ts: **************************************************************

************************ Begin: TS CHECKS AND WARNINGS ************************
************************ End: TS CHECKS AND WARNINGS **************************


                     ====================================
                        Begin CG opt. move =      0
                     ====================================

outcell: Unit cell vectors (Ang):
       16.256930    0.000000    0.000000
        0.000000   16.256930    0.000000
        0.000000    0.000000   12.085640

outcell: Cell vector modules (Ang)   :   16.256930   16.256930   12.085640
outcell: Cell angles (23,13,12) (deg):     90.0000     90.0000     90.0000
outcell: Cell volume (Ang**3)        :   3194.0869
<dSpData1D:S at geom step 0
  <sparsity:sparsity for geom step 0
    nrows_g=304 nrows=304 sparsity=.4930 nnzs=45564, refcount: 7>
  <dData1D:(new from dSpData1D) n=45564, refcount: 1>
refcount: 1>
new_DM -- step:     1
Initializing Density Matrix...

Attempting to read DM from file... Failed...
DM filled with atomic data:
<dSpData2D:DM initialized from atoms
  <sparsity:sparsity for geom step 0
    nrows_g=304 nrows=304 sparsity=.4930 nnzs=45564, refcount: 8>
  <dData2D:DM n=45564 m=1, refcount: 1>
refcount: 1>
No. of atoms with KB's overlaping orbs in proc 0. Max # of overlaps:      16      99

InitMesh: MESH = 180 x 180 x 128 = 4147200
InitMesh: Mesh cutoff (required, used) =   300.000   310.015 Ry
New grid distribution [1]: sub = 2

stepf: Fermi-Dirac step function

siesta: Program's energy decomposition (eV):
siesta: Ebs     =    -13711.669565
siesta: Eions   =     81244.997452
siesta: Ena     =      7540.817659
siesta: Ekin    =     17033.526926
siesta: Enl     =      1023.090735
siesta: Eso     =         0.000000
siesta: Edftu   =         0.000000
siesta: DEna    =      2088.333491
siesta: DUscf   =       266.580736
siesta: DUext   =         0.000000
siesta: Ex      =    -10352.203466
siesta: Ec      =      -638.604545
siesta: Exc     =    -10990.808011
siesta: EbV     =         0.000000
siesta: eta*DQ  =         0.000000
siesta: Emadel  =         0.000000
siesta: Emeta   =         0.000000
siesta: Emolmec =         0.000000
siesta: Ekinion =         0.000000
siesta: Eharris =    -64018.578835
siesta: Etot    =    -64283.455916
siesta: FreeEng =    -64283.493032

        iscf     Eharris(eV)        E_KS(eV)     FreeEng(eV)     dDmax    Ef(eV) dHmax(eV)
   scf:    1   -64018.578835   -64283.455916   -64283.493032  2.659146  0.926346 36.963725
timer: Routine,Calls,Time,% = IterSCF        1       2.084  29.77
   scf:    2   -64385.483279   -64400.040884   -64400.113010  1.557977 -2.014571 12.228246
   scf:    3   -64427.865850   -64432.814599   -64432.886273  0.758034 -2.214433  7.031650
   scf:    4   -64439.292554   -64436.986824   -64437.058497  0.278560 -2.394908  1.809596
   scf:    5   -64438.058755   -64437.608354   -64437.679979  0.081676 -2.478461  1.000066
   scf:    6   -64437.535176   -64437.650470   -64437.719650  0.188660 -2.533147  0.700547
   scf:    7   -64436.835115   -64437.493994   -64437.556418  0.349478 -2.520421  1.313694
   scf:    8   -64437.697942   -64437.714214   -64437.785875  0.231167 -2.527624  0.129171
   scf:    9   -64437.715833   -64437.715639   -64437.787317  0.013873 -2.530666  0.062084
   scf:   10   -64437.712899   -64437.715035   -64437.786670  0.019138 -2.531862  0.111214
   scf:   11   -64437.713872   -64437.715787   -64437.787450  0.024846 -2.532501  0.068124
   scf:   12   -64437.716446   -64437.716323   -64437.788003  0.011172 -2.534068  0.027985
   scf:   13   -64437.716468   -64437.716413   -64437.788093  0.001845 -2.535317  0.026697
   scf:   14   -64437.716440   -64437.716446   -64437.788125  0.003016 -2.535927  0.019772
   scf:   15   -64437.716343   -64437.716444   -64437.788122  0.004950 -2.536753  0.028553
   scf:   16   -64437.716473   -64437.716497   -64437.788177  0.004517 -2.537139  0.012992
   scf:   17   -64437.716531   -64437.716517   -64437.788197  0.001210 -2.537780  0.008101
   scf:   18   -64437.716509   -64437.716520   -64437.788199  0.001963 -2.538296  0.014678
   scf:   19   -64437.716496   -64437.716523   -64437.788202  0.002715 -2.538506  0.011210
   scf:   20   -64437.716529   -64437.716533   -64437.788213  0.002019 -2.538850  0.008395
   scf:   21   -64437.716535   -64437.716535   -64437.788215  0.000440 -2.539118  0.007495
   scf:   22   -64437.716493   -64437.716525   -64437.788204  0.002369 -2.539319  0.011419
   scf:   23   -64437.716529   -64437.716538   -64437.788217  0.002346 -2.539444  0.006761
   scf:   24   -64437.716537   -64437.716539   -64437.788219  0.000522 -2.539635  0.005747
   scf:   25   -64437.716508   -64437.716531   -64437.788210  0.001980 -2.539740  0.009018
   scf:   26   -64437.716525   -64437.716538   -64437.788218  0.002254 -2.539826  0.007136
   scf:   27   -64437.716538   -64437.716540   -64437.788219  0.000694 -2.539931  0.005340
   scf:   28   -64437.716492   -64437.716526   -64437.788205  0.002391 -2.540003  0.010290
   scf:   29   -64437.716526   -64437.716539   -64437.788218  0.002528 -2.540047  0.006498
   scf:   30   -64437.716537   -64437.716540   -64437.788219  0.000709 -2.540115  0.005243
   scf:   31   -64437.716496   -64437.716528   -64437.788207  0.002299 -2.540153  0.009570
   scf:   32   -64437.716520   -64437.716538   -64437.788217  0.002651 -2.540183  0.007518
   scf:   33   -64437.716537   -64437.716539   -64437.788219  0.000806 -2.540221  0.005732
   scf:   34   -64437.716468   -64437.716520   -64437.788198  0.002900 -2.540246  0.012429
   scf:   35   -64437.716520   -64437.716538   -64437.788218  0.003038 -2.540262  0.007152
   scf:   36   -64437.716535   -64437.716539   -64437.788219  0.000795 -2.540286  0.006074
   scf:   37   -64437.716474   -64437.716521   -64437.788200  0.002820 -2.540299  0.011798
   scf:   38   -64437.716512   -64437.716536   -64437.788216  0.003193 -2.540310  0.008568
   scf:   39   -64437.716534   -64437.716538   -64437.788218  0.000891 -2.540323  0.006884
   scf:   40   -64437.716431   -64437.716509   -64437.788187  0.003566 -2.540332  0.015195
   scf:   41   -64437.716511   -64437.716537   -64437.788217  0.003683 -2.540338  0.008261
   scf:   42   -64437.716532   -64437.716538   -64437.788218  0.000869 -2.540346  0.007459
   scf:   43   -64437.716440   -64437.716511   -64437.788190  0.003466 -2.540351  0.014283
   scf:   44   -64437.716501   -64437.716535   -64437.788214  0.003848 -2.540355  0.010000
   scf:   45   -64437.716530   -64437.716537   -64437.788217  0.000973 -2.540359  0.008500
   scf:   46   -64437.716376   -64437.716493   -64437.788170  0.004381 -2.540362  0.018350
   scf:   47   -64437.716500   -64437.716535   -64437.788215  0.004461 -2.540364  0.009676
   scf:   48   -64437.716526   -64437.716536   -64437.788216  0.000937 -2.540367  0.009292
   scf:   49   -64437.716390   -64437.716497   -64437.788175  0.004255 -2.540369  0.017142
   scf:   50   -64437.716485   -64437.716532   -64437.788212  0.004633 -2.540370  0.011749
   scf:   51   -64437.716524   -64437.716534   -64437.788214  0.001049 -2.540372  0.010566
   scf:   52   -64437.716294   -64437.716469   -64437.788146  0.005370 -2.540373  0.022030
   scf:   53   -64437.716484   -64437.716533   -64437.788213  0.005393 -2.540373  0.011376
   scf:   54   -64437.716518   -64437.716533   -64437.788213  0.000994 -2.540374  0.011614
   scf:   55   -64437.716317   -64437.716476   -64437.788153  0.005214 -2.540375  0.020480
   scf:   56   -64437.716464   -64437.716529   -64437.788209  0.005570 -2.540375  0.013829
   scf:   57   -64437.716514   -64437.716530   -64437.788210  0.001113 -2.540376  0.013155
   scf:   58   -64437.716172   -64437.716434   -64437.788110  0.006567 -2.540376  0.026340
   scf:   59   -64437.716463   -64437.716530   -64437.788210  0.006506 -2.540376  0.013387
   scf:   60   -64437.716504   -64437.716528   -64437.788208  0.001180 -2.540377  0.014529
   scf:   61   -64437.716209   -64437.716446   -64437.788121  0.006377 -2.540377  0.024751
   scf:   62   -64437.716435   -64437.716525   -64437.788204  0.006686 -2.540377  0.016284
   scf:   63   -64437.716498   -64437.716524   -64437.788204  0.001248 -2.540377  0.016384
   scf:   64   -64437.715995   -64437.716384   -64437.788057  0.008012 -2.540377  0.031638
   scf:   65   -64437.716434   -64437.716526   -64437.788206  0.007832 -2.540377  0.015754
   scf:   66   -64437.716482   -64437.716521   -64437.788200  0.001645 -2.540378  0.018179
   scf:   67   -64437.716051   -64437.716402   -64437.788075  0.007787 -2.540378  0.030441
   scf:   68   -64437.716395   -64437.716519   -64437.788198  0.008013 -2.540378  0.019178
   scf:   69   -64437.716472   -64437.716515   -64437.788194  0.001742 -2.540378  0.020404
   scf:   70   -64437.715737   -64437.716311   -64437.787982  0.009755 -2.540378  0.038920
   scf:   71   -64437.716394   -64437.716520   -64437.788200  0.009407 -2.540378  0.018536
   scf:   72   -64437.716448   -64437.716509   -64437.788188  0.002254 -2.540378  0.022743
   scf:   73   -64437.715821   -64437.716338   -64437.788010  0.009493 -2.540378  0.037324
   scf:   74   -64437.716340   -64437.716510   -64437.788189  0.009585 -2.540378  0.022585
   scf:   75   -64437.716430   -64437.716499   -64437.788178  0.002387 -2.540378  0.025407
   scf:   76   -64437.715363   -64437.716208   -64437.787873  0.011852 -2.540378  0.047709
   scf:   77   -64437.716339   -64437.716512   -64437.788192  0.011273 -2.540378  0.021805
   scf:   78   -64437.716392   -64437.716490   -64437.788169  0.003048 -2.540378  0.028452
   scf:   79   -64437.715488   -64437.716248   -64437.787915  0.011557 -2.540378  0.045626
   scf:   80   -64437.716264   -64437.716498   -64437.788177  0.011446 -2.540378  0.026595
   scf:   81   -64437.716364   -64437.716475   -64437.788153  0.003227 -2.540378  0.031630
   scf:   82   -64437.714824   -64437.716060   -64437.787719  0.014372 -2.540378  0.058283
   scf:   83   -64437.716265   -64437.716501   -64437.788181  0.013477 -2.540378  0.025643
   scf:   84   -64437.716302   -64437.716460   -64437.788138  0.004081 -2.540378  0.035589
   scf:   85   -64437.715008   -64437.716120   -64437.787782  0.014050 -2.540378  0.055613
   scf:   86   -64437.716160   -64437.716482   -64437.788161  0.013642 -2.540378  0.031314
   scf:   87   -64437.716258   -64437.716437   -64437.788114  0.004315 -2.540378  0.039368
   scf:   88   -64437.714052   -64437.715850   -64437.787501  0.017397 -2.540378  0.070966
   scf:   89   -64437.716164   -64437.716485   -64437.788165  0.016073 -2.540378  0.030145
   scf:   90   -64437.716157   -64437.716411   -64437.788088  0.005417 -2.540378  0.044510
   scf:   91   -64437.714319   -64437.715938   -64437.787593  0.017061 -2.540378  0.067594
   scf:   92   -64437.716018   -64437.716459   -64437.788138  0.016228 -2.540378  0.036864
   scf:   93   -64437.716088   -64437.716377   -64437.788052  0.005719 -2.540378  0.048986
   scf:   94   -64437.712950   -64437.715556   -64437.787194  0.021025 -2.540378  0.086134
   scf:   95   -64437.716026   -64437.716463   -64437.788142  0.019121 -2.540378  0.035422
   scf:   96   -64437.715924   -64437.716334   -64437.788008  0.007141 -2.540378  0.055659
   scf:   97   -64437.713333   -64437.715683   -64437.787327  0.020695 -2.540378  0.081932
   scf:   98   -64437.715824   -64437.716427   -64437.788105  0.019265 -2.540377  0.043387
   scf:   99   -64437.715815   -64437.716281   -64437.787953  0.007524 -2.540378  0.060937
   scf:  100   -64437.711386   -64437.715143   -64437.786764  0.025370 -2.540378  0.104226
   scf:  101   -64437.715840   -64437.716432   -64437.788111  0.022692 -2.540377  0.041602
   scf:  102   -64437.715548   -64437.716210   -64437.787880  0.009359 -2.540377  0.069586
   scf:  103   -64437.711927   -64437.715327   -64437.786956  0.025080 -2.540378  0.099047
   scf:  104   -64437.715558   -64437.716382   -64437.788060  0.022823 -2.540377  0.051047
   scf:  105   -64437.715379   -64437.716129   -64437.787796  0.009837 -2.540377  0.075776
   scf:  106   -64437.709172   -64437.714569   -64437.786166  0.030571 -2.540378  0.125749
   scf:  107   -64437.715587   -64437.716387   -64437.788066  0.026862 -2.540377  0.048830
   scf:  108   -64437.714941   -64437.716012   -64437.787675  0.012205 -2.540377  0.086976
   scf:  109   -64437.709931   -64437.714830   -64437.786439  0.030368 -2.540377  0.119429
   scf:  110   -64437.715194   -64437.716318   -64437.787996  0.026982 -2.540377  0.060036
   scf:  111   -64437.714680   -64437.715889   -64437.787547  0.012794 -2.540377  0.094188
   scf:  112   -64437.706053   -64437.713773   -64437.785337  0.036793 -2.540377  0.151289
   scf:  113   -64437.715244   -64437.716322   -64437.788001  0.031718 -2.540377  0.057270
   scf:  114   -64437.713961   -64437.715694   -64437.787346  0.015847 -2.540377  0.108675
   scf:  115   -64437.707104   -64437.714142   -64437.785722  0.036743 -2.540377  0.143642
   scf:  116   -64437.714695   -64437.716228   -64437.787905  0.031828 -2.540376  0.070570
   scf:  117   -64437.713563   -64437.715509   -64437.787153  0.016563 -2.540376  0.117013
   scf:  118   -64437.701676   -64437.712677   -64437.784196  0.044232 -2.540377  0.181525
   scf:  119   -64437.714779   -64437.716230   -64437.787909  0.037357 -2.540376  0.067106
   scf:  120   -64437.712383   -64437.715185   -64437.786819  0.020497 -2.540376  0.135729
   scf:  121   -64437.703118   -64437.713194   -64437.784736  0.044429 -2.540377  0.172335
   scf:  122   -64437.714013   -64437.716100   -64437.787776  0.037458 -2.540375  0.082896
   scf:  123   -64437.711781   -64437.714907   -64437.786530  0.021353 -2.540376  0.145274
   scf:  124   -64437.695554   -64437.711173   -64437.782631  0.053120 -2.540376  0.217232
   scf:  125   -64437.714149   -64437.716097   -64437.787775  0.043882 -2.540375  0.078542
   scf:  126   -64437.709841   -64437.714370   -64437.785974  0.026419 -2.540375  0.169425
   scf:  127   -64437.697515   -64437.711895   -64437.783383  0.053689 -2.540376  0.206247
   scf:  128   -64437.713079   -64437.715917   -64437.787593  0.043977 -2.540374  0.097293
   scf:  129   -64437.708943   -64437.713959   -64437.785545  0.027423 -2.540375  0.180209
   scf:  130   -64437.687025   -64437.709123   -64437.780497  0.063731 -2.540376  0.259297
   scf:  131   -64437.713293   -64437.715904   -64437.787583  0.051406 -2.540373  0.091797
   scf:  132   -64437.705755   -64437.713067   -64437.784624  0.033940 -2.540374  0.211324
   scf:  133   -64437.689671   -64437.710123   -64437.781540  0.064838 -2.540375  0.246211
   scf:  134   -64437.711798   -64437.715656   -64437.787332  0.051497 -2.540372  0.114070
   scf:  135   -64437.704439   -64437.712466   -64437.783995  0.035087 -2.540373  0.223294
   scf:  136   -64437.675191   -64437.706341   -64437.777603  0.076384 -2.540374  0.308717
   scf:  137   -64437.712128   -64437.715623   -64437.787302  0.060048 -2.540371  0.107103
   scf:  138   -64437.699209   -64437.710992   -64437.782470  0.043460 -2.540372  0.263307
   scf:  139   -64437.678739   -64437.707723   -64437.779045  0.078245 -2.540373  0.293150
   scf:  140   -64437.710043   -64437.715281   -64437.786957  0.060132 -2.540369  0.133566
   scf:  141   -64437.697323   -64437.710126   -64437.781565  0.044722 -2.540372  0.276256
   scf:  142   -64437.658843   -64437.702587   -64437.773698  0.091443 -2.540372  0.366607
   scf:  143   -64437.710543   -64437.715215   -64437.786895  0.069930 -2.540368  0.124691
   scf:  144   -64437.688769   -64437.707699   -64437.779052  0.055458 -2.540369  0.327580
   scf:  145   -64437.663584   -64437.704493   -64437.775688  0.094329 -2.540371  0.348058
   scf:  146   -64437.707633   -64437.714744   -64437.786420  0.069999 -2.540365  0.156147
   scf:  147   -64437.686160   -64437.706483   -64437.777780  0.056764 -2.540369  0.341040
   scf:  148   -64437.636371   -64437.697550   -64437.768462  0.109316 -2.540369  0.434182
   scf:  149   -64437.708380   -64437.714620   -64437.786300  0.081172 -2.540363  0.144783
   scf:  150   -64437.672240   -64437.702513   -64437.773665  0.070483 -2.540365  0.406635
   scf:  151   -64437.642715   -64437.700182   -64437.771209  0.113557 -2.540367  0.411964
   scf:  152   -64437.704323   -64437.713972   -64437.785649  0.081208 -2.540359  0.182200
   scf:  153   -64437.668834   -64437.700868   -64437.771943  0.071684 -2.540365  0.419707
   scf:  154   -64437.605668   -64437.690834   -64437.761484  0.130907 -2.540364  0.512737
   scf:  155   -64437.705427   -64437.713754   -64437.785434  0.093893 -2.540356  0.170065
   scf:  156   -64437.646373   -64437.694438   -64437.765272  0.089130 -2.540360  0.503107
   scf:  157   -64437.614229   -64437.694479   -64437.765289  0.136405 -2.540362  0.485859
   scf:  158   -64437.699772   -64437.712866   -64437.784543  0.093860 -2.540351  0.212130
   scf:  159   -64437.642370   -64437.692349   -64437.763084  0.089940 -2.540360  0.514180
   scf:  160   -64437.564035   -64437.681938   -64437.752243  0.157290 -2.540358  0.603588
   scf:  161   -64437.701399   -64437.712500   -64437.784179  0.108207 -2.540346  0.212624
   scf:  162   -64437.606606   -64437.682084   -64437.752427  0.111958 -2.540353  0.619427
   scf:  163   -64437.575804   -64437.687022   -64437.757550  0.163293 -2.540354  0.570555
   scf:  164   -64437.693525   -64437.711292   -64437.782970  0.108038 -2.540339  0.246361
   scf:  165   -64437.602932   -64437.679727   -64437.749953  0.111862 -2.540353  0.625767
   scf:  166   -64437.508123   -64437.670234   -64437.740093  0.188215 -2.540348  0.707978
   scf:  167   -64437.695930   -64437.710705   -64437.782382  0.124223 -2.540332  0.263892
   scf:  168   -64437.547097   -64437.663687   -64437.733293  0.139346 -2.540343  0.757201
   scf:  169   -64437.524821   -64437.677405   -64437.747577  0.194466 -2.540343  0.666460
   scf:  170   -64437.684992   -64437.709083   -64437.780762  0.123809 -2.540322  0.285347
   scf:  171   -64437.546268   -64437.661682   -64437.731174  0.137462 -2.540343  0.754376
   scf:  172   -64437.433995   -64437.654954   -64437.724235  0.223851 -2.540334  0.826902
   scf:  173   -64437.688605   -64437.708194   -64437.779865  0.142060 -2.540313  0.324245
   scf:  174   -64437.461492   -64437.637352   -64437.705893  0.171264 -2.540331  0.916263
   scf:  175   -64437.458737   -64437.665232   -64437.734959  0.230932 -2.540327  0.773204
   scf:  176   -64437.673468   -64437.706060   -64437.777740  0.141218 -2.540299  0.329604
   scf:  177   -64437.469073   -64437.637184   -64437.705673  0.166173 -2.540331  0.897466
   scf:  178   -64437.337382   -64437.635175   -64437.703713  0.263896 -2.540314  0.960850
   scf:  179   -64437.679055   -64437.704799   -64437.776459  0.161846 -2.540287  0.392956
   scf:  180   -64437.344968   -64437.601685   -64437.668776  0.206984 -2.540314  1.093558
   scf:  181   -64437.375850   -64437.650216   -64437.719401  0.271648 -2.540306  0.889111
   scf:  182   -64437.658227   -64437.702079   -64437.773759  0.160272 -2.540269  0.389310
   scf:  183   -64437.371515   -64437.606257   -64437.673474  0.196562 -2.540315  1.048985
   scf:  184   -64437.214251   -64437.609841   -64437.677428  0.307361 -2.540289  1.109457
   scf:  185   -64437.667181   -64437.700447   -64437.772091  0.183715 -2.540255  0.467618
   scf:  186   -64437.197602   -64437.556814   -64437.622075  0.244870 -2.540292  1.282345
   scf:  187   -64437.276564   -64437.632365   -64437.700909  0.314239 -2.540279  1.010534
   scf:  188   -64437.638708   -64437.697121   -64437.768801  0.180892 -2.540231  0.454574
   scf:  189   -64437.260347   -64437.570902   -64437.636660  0.226191 -2.540296  1.198897
   scf:  190   -64437.061658   -64437.577820   -64437.644196  0.352454 -2.540258  1.271145
   scf:  191   -64437.653498   -64437.695269   -64437.766889  0.207750 -2.540216  0.543850
   scf:  192   -64437.027735   -64437.505392   -64437.568560  0.282420 -2.540265  1.472366
   scf:  193   -64437.165001   -64437.612268   -64437.680086  0.355878 -2.540248  1.131222
   scf:  194   -64437.614749   -64437.691372   -64437.763052  0.202804 -2.540187  0.514302
   scf:  195   -64437.150683   -64437.535605   -64437.599910  0.251784 -2.540273  1.333810
   scf:  196   -64436.878711   -64437.538012   -64437.602856  0.396731 -2.540221  1.442894
   scf:  197   -64437.639501   -64437.689691   -64437.761284  0.233864 -2.540172  0.615656
   scf:  198   -64436.852962   -64437.452878   -64437.513928  0.316640 -2.540233  1.651129
   scf:  199   -64437.050550   -64437.591441   -64437.658496  0.392963 -2.540214  1.241892
   scf:  200   -64437.586748   -64437.685243   -64437.756922  0.225356 -2.540140  0.571437
   scf:  201   -64437.064296   -64437.506837   -64437.569965  0.269692 -2.540248  1.438593
   scf:  202   -64436.667506   -64437.489542   -64437.552472  0.437444 -2.540183  1.620074
   scf:  203   -64437.627855   -64437.684449   -64437.756016  0.261626 -2.540128  0.676309
   scf:  204   -64436.697960   -64437.406875   -64437.466118  0.344510 -2.540196  1.805057
   scf:  205   -64436.948878   -64437.572644   -64437.638989  0.421435 -2.540182  1.330084
   scf:  206   -64437.555727   -64437.679282   -64437.750955  0.247294 -2.540094  0.649000
   scf:  207   -64437.024512   -64437.491603   -64437.554131  0.276386 -2.540223  1.497876
   scf:  208   -64436.434587   -64437.432162   -64437.492747  0.471787 -2.540148  1.795774
   scf:  209   -64437.622263   -64437.680536   -64437.752081  0.290089 -2.540088  0.718767
   scf:  210   -64436.592724   -64437.376595   -64437.434744  0.362870 -2.540156  1.917918
   scf:  211   -64436.881921   -64437.559935   -64437.625764  0.439895 -2.540157  1.380222
   scf:  212   -64437.523658   -64437.674082   -64437.745722  0.266556 -2.540056  0.729635
   scf:  213   -64437.050189   -64437.495836   -64437.558583  0.268630 -2.540200  1.496397
   scf:  214   -64436.194837   -64437.367339   -64437.425167  0.496574 -2.540123  1.958248
   scf:  215   -64437.626757   -64437.679169   -64437.750701  0.317648 -2.540061  0.734172
   scf:  216   -64436.576501   -64437.373913   -64437.432178  0.367072 -2.540117  1.963782
   scf:  217   -64436.875894   -64437.558103   -64437.623789  0.445507 -2.540145  1.374093
   scf:  218   -64437.494602   -64437.670306   -64437.741856  0.280062 -2.540035  0.805193
   scf:  219   -64437.149521   -64437.522808   -64437.586717  0.243489 -2.540184  1.419057
   scf:  220   -64435.980883   -64437.300999   -64437.355858  0.507200 -2.540114  2.084572
   scf:  221   -64437.643403   -64437.681732   -64437.753271  0.341787 -2.540054  0.708412
   scf:  222   -64436.702639   -64437.414425   -64437.474621  0.348422 -2.540088  1.894786
   scf:  223   -64436.954937   -64437.571044   -64437.637113  0.426953 -2.540150  1.292875
   scf:  224   -64437.476351   -64437.668897   -64437.740264  0.283542 -2.540042  0.859129
   scf:  225   -64437.310929   -64437.570561   -64437.636474  0.199064 -2.540178  1.254073
   scf:  226   -64435.858484   -64437.248894   -64437.301212  0.496349 -2.540133  2.130052
   scf:  227   -64437.667109   -64437.689129   -64437.760716  0.358250 -2.540076  0.621032
   scf:  228   -64437.007325   -64437.507639   -64437.571833  0.293469 -2.540084  1.639113
   scf:  229   -64437.127127   -64437.599382   -64437.666418  0.372261 -2.540176  1.121957
   scf:  230   -64437.479112   -64437.670913   -64437.742008  0.271883 -2.540087  0.867139
   scf:  231   -64437.494475   -64437.628737   -64437.697046  0.136516 -2.540190  1.001295
   scf:  232   -64435.936967   -64437.242915   -64437.294547  0.453369 -2.540183  2.017718
   scf:  233   -64437.681570   -64437.699856   -64437.771518  0.358512 -2.540128  0.456221
   scf:  234   -64437.396346   -64437.623763   -64437.692574  0.195300 -2.540124  1.160936
   scf:  235   -64437.361658   -64437.638911   -64437.707406  0.275167 -2.540218  0.858329
   scf:  236   -64437.506142   -64437.675950   -64437.746743  0.241085 -2.540165  0.812781
   scf:  237   -64437.640523   -64437.679377   -64437.749717  0.062586 -2.540222  0.684534
   scf:  238   -64436.373800   -64437.338642   -64437.394109  0.384920 -2.540244  1.620431
   scf:  239   -64437.673500   -64437.708736   -64437.780404  0.320758 -2.540203  0.322088
   scf:  240   -64437.640243   -64437.695081   -64437.766384  0.080171 -2.540203  0.595524
   scf:  241   -64437.573581   -64437.679366   -64437.749475  0.157419 -2.540265  0.530016
   scf:  242   -64437.546061   -64437.680913   -64437.751449  0.192769 -2.540247  0.710072
   scf:  243   -64437.707585   -64437.706998   -64437.778390  0.070542 -2.540269  0.374613
   scf:  244   -64437.217786   -64437.571616   -64437.637194  0.239385 -2.540282  1.088353
   scf:  245   -64437.673265   -64437.712168   -64437.783754  0.202294 -2.540279  0.266774
   scf:  246   -64437.699589   -64437.712386   -64437.784065  0.045958 -2.540284  0.211278
   scf:  247   -64437.681594   -64437.705176   -64437.776377  0.067559 -2.540310  0.293911
   scf:  248   -64437.586140   -64437.684685   -64437.755116  0.140700 -2.540310  0.587968
   scf:  249   -64437.717868   -64437.714870   -64437.786523  0.087252 -2.540316  0.166360
   scf:  250   -64437.659063   -64437.700063   -64437.771118  0.086071 -2.540323  0.438920
   scf:  251   -64437.697770   -64437.713695   -64437.785270  0.086546 -2.540331  0.185463
   scf:  252   -64437.707676   -64437.714726   -64437.786381  0.047264 -2.540336  0.172947
   scf:  253   -64437.711150   -64437.714183   -64437.785770  0.021082 -2.540345  0.157826
   scf:  254   -64437.635557   -64437.694001   -64437.764734  0.093381 -2.540349  0.418946
   scf:  255   -64437.715596   -64437.716222   -64437.787902  0.077497 -2.540349  0.058864
   scf:  256   -64437.712191   -64437.715321   -64437.786972  0.021800 -2.540354  0.140066
   scf:  257   -64437.710958   -64437.715212   -64437.786837  0.033714 -2.540358  0.105050
   scf:  258   -64437.710553   -64437.715293   -64437.786934  0.036552 -2.540361  0.135044
   scf:  259   -64437.716143   -64437.716152   -64437.787819  0.012268 -2.540363  0.073770
   scf:  260   -64437.694553   -64437.710139   -64437.781550  0.049674 -2.540366  0.222229
   scf:  261   -64437.715091   -64437.716405   -64437.788082  0.041921 -2.540366  0.047360
   scf:  262   -64437.715954   -64437.716394   -64437.788074  0.007625 -2.540369  0.042010
   scf:  263   -64437.715309   -64437.716150   -64437.787814  0.012951 -2.540370  0.053246
   scf:  264   -64437.712361   -64437.715531   -64437.787172  0.025613 -2.540371  0.105976
   scf:  265   -64437.716588   -64437.716483   -64437.788162  0.015437 -2.540372  0.031040
   scf:  266   -64437.714420   -64437.715932   -64437.787589  0.016465 -2.540373  0.083172
   scf:  267   -64437.715933   -64437.716453   -64437.788130  0.016170 -2.540374  0.033074
   scf:  268   -64437.716266   -64437.716484   -64437.788163  0.008272 -2.540375  0.030568
   scf:  269   -64437.716357   -64437.716462   -64437.788139  0.003990 -2.540375  0.028497
   scf:  270   -64437.713955   -64437.715825   -64437.787474  0.016857 -2.540376  0.075485
   scf:  271   -64437.716516   -64437.716531   -64437.788211  0.013830 -2.540376  0.010862
   scf:  272   -64437.716392   -64437.716499   -64437.788178  0.004095 -2.540376  0.025783
   scf:  273   -64437.716363   -64437.716499   -64437.788178  0.006116 -2.540377  0.018807
   scf:  274   -64437.716358   -64437.716503   -64437.788182  0.006430 -2.540377  0.023693
   scf:  275   -64437.716527   -64437.716528   -64437.788208  0.002069 -2.540377  0.013265
   scf:  276   -64437.715818   -64437.716331   -64437.788002  0.008987 -2.540377  0.039908
   scf:  277   -64437.716497   -64437.716537   -64437.788217  0.007586 -2.540377  0.008284
   scf:  278   -64437.716523   -64437.716536   -64437.788216  0.001287 -2.540377  0.007692
   scf:  279   -64437.716501   -64437.716529   -64437.788208  0.002343 -2.540378  0.009416
   scf:  280   -64437.716414   -64437.716511   -64437.788189  0.004502 -2.540378  0.018534
   scf:  281   -64437.716543   -64437.716539   -64437.788219  0.002663 -2.540378  0.005590
   scf:  282   -64437.716470   -64437.716521   -64437.788200  0.003008 -2.540378  0.015105
   scf:  283   -64437.716522   -64437.716538   -64437.788218  0.002921 -2.540378  0.005826
   scf:  284   -64437.716533   -64437.716539   -64437.788219  0.001438 -2.540378  0.005335
   scf:  285   -64437.716535   -64437.716539   -64437.788218  0.000733 -2.540378  0.005074
   scf:  286   -64437.716461   -64437.716519   -64437.788198  0.002978 -2.540378  0.013324
   scf:  287   -64437.716540   -64437.716541   -64437.788221  0.002420 -2.540378  0.001977
   scf:  288   -64437.716536   -64437.716540   -64437.788220  0.000756 -2.540378  0.004683
   scf:  289   -64437.716535   -64437.716540   -64437.788220  0.001100 -2.540378  0.003343
   scf:  290   -64437.716536   -64437.716540   -64437.788220  0.001126 -2.540378  0.004137
   scf:  291   -64437.716541   -64437.716541   -64437.788221  0.000349 -2.540378  0.002371
   scf:  292   -64437.716518   -64437.716534   -64437.788214  0.001611 -2.540378  0.007107
   scf:  293   -64437.716540   -64437.716541   -64437.788221  0.001361 -2.540378  0.001447
   scf:  294   -64437.716541   -64437.716541   -64437.788221  0.000217 -2.540378  0.001400
   scf:  295   -64437.716540   -64437.716541   -64437.788221  0.000422 -2.540378  0.001662
   scf:  296   -64437.716537   -64437.716540   -64437.788220  0.000790 -2.540378  0.003236
   scf:  297   -64437.716541   -64437.716541   -64437.788221  0.000459 -2.540378  0.001004
   scf:  298   -64437.716539   -64437.716540   -64437.788220  0.000548 -2.540378  0.002736
   scf:  299   -64437.716541   -64437.716541   -64437.788221  0.000526 -2.540378  0.001025
   scf:  300   -64437.716541   -64437.716541   -64437.788221  0.000250 -2.540378  0.000931
   scf:  301   -64437.716541   -64437.716541   -64437.788221  0.000134 -2.540378  0.000903
   scf:  302   -64437.716539   -64437.716540   -64437.788220  0.000525 -2.540378  0.002348
   scf:  303   -64437.716541   -64437.716541   -64437.788221  0.000423 -2.540378  0.000359
   scf:  304   -64437.716541   -64437.716541   -64437.788221  0.000139 -2.540378  0.000851
   scf:  305   -64437.716541   -64437.716541   -64437.788221  0.000198 -2.540378  0.000594
   scf:  306   -64437.716541   -64437.716541   -64437.788221  0.000197 -2.540378  0.000723
   scf:  307   -64437.716541   -64437.716541   -64437.788221  0.000059 -2.540378  0.000424

SCF Convergence by DM+H criterion
max |DM_out - DM_in|         :     0.0000586611
max |H_out - H_in|      (eV) :     0.0004238840
SCF cycle converged after 307 iterations

Using DM_out to compute the final energy and forces
No. of atoms with KB's overlaping orbs in proc 0. Max # of overlaps:      16      99

siesta: E_KS(eV) =           -64437.7165

siesta: E_KS - E_eggbox =    -64437.7165

siesta: Atomic forces (eV/Ang):
----------------------------------------
   Tot    0.204992    0.204992    0.025829
----------------------------------------
   Max    2.099948
   Res    1.503432    sqrt( Sum f_i^2 / 3N )
----------------------------------------
   Max    2.099948    constrained

Stress tensor Voigt[x,y,z,yz,xz,xy] (kbar):       23.59       23.59       14.61        0.02        0.02        0.03
(Free)E + p*V (eV/cell)   -64478.8541
Target enthalpy (eV/cell)   -64437.7882

siesta: Stress tensor (static) (eV/Ang**3):
         0.014726    0.000021    0.000014
         0.000021    0.014726    0.000014
         0.000014    0.000014    0.009119

siesta: Pressure (static):        -20.59891691  kBar

siesta: Stress tensor (total) (eV/Ang**3):
         0.014726    0.000021    0.000014
         0.000021    0.014726    0.000014
         0.000014    0.000014    0.009119

siesta: Pressure (total):        -20.59891691  kBar

cgvc: No target stress found, assuming hydrostatic MD.TargetPressure.

cgvc: Target stress (kBar)
cgvc:        -0.000       0.000       0.000
cgvc:         0.000      -0.000       0.000
cgvc:         0.000       0.000      -0.000

                     ====================================
                        Begin CG opt. move =      1
                     ====================================

outcell: Unit cell vectors (Ang):
       16.075805   -0.000261   -0.000172
       -0.000261   16.075805   -0.000172
       -0.000128   -0.000128   12.002260

outcell: Cell vector modules (Ang)   :   16.075805   16.075805   12.002260
outcell: Cell angles (23,13,12) (deg):     90.0012     90.0012     90.0019
outcell: Cell volume (Ang**3)        :   3101.7621
<dSpData1D:S at geom step 1
  <sparsity:sparsity for geom step 1
    nrows_g=304 nrows=304 sparsity=.4958 nnzs=45820, refcount: 7>
  <dData1D:(new from dSpData1D) n=45820, refcount: 1>
refcount: 1>
new_DM -- step:     2
Re-using DM from previous geometries...
Number of DMs in history: 1
 DM extrapolation coefficients: 
1   1.00000
New DM after history re-use:
<dSpData2D:SpM extrapolated using coords
  <sparsity:sparsity for geom step 1
    nrows_g=304 nrows=304 sparsity=.4958 nnzs=45820, refcount: 9>
  <dData2D:(temp array for extrapolation) n=45820 m=1, refcount: 1>
refcount: 1>
Note: For starting DM, Qtot, Tr[D*S] =        304.00000000        304.49781813
No. of atoms with KB's overlaping orbs in proc 0. Max # of overlaps:      16      99

InitMesh: MESH = 180 x 180 x 128 = 4147200
InitMesh: Mesh cutoff (required, used) =   300.000   314.337 Ry
New grid distribution [1]: sub = 2

        iscf     Eharris(eV)        E_KS(eV)     FreeEng(eV)     dDmax    Ef(eV) dHmax(eV)
   scf:    1   -64453.491783   -64439.314540   -64439.386215  0.043729 -2.496803  1.023727
   scf:    2   -64426.830152   -64435.507468   -64435.579205  0.355320 -2.576754  5.841403
   scf:    3   -64440.168569   -64439.527808   -64439.599474  0.314493 -2.511506  0.155392
   scf:    4   -64439.523802   -64439.529781   -64439.601278  0.039421 -2.508767  0.179037
   scf:    5   -64439.520263   -64439.531711   -64439.603270  0.056502 -2.508757  0.154053
   scf:    6   -64439.535444   -64439.535148   -64439.606824  0.027293 -2.508889  0.023708
   scf:    7   -64439.535475   -64439.535359   -64439.607035  0.004350 -2.509093  0.024098
   scf:    8   -64439.535219   -64439.535363   -64439.607037  0.006008 -2.509268  0.025083
   scf:    9   -64439.535365   -64439.535428   -64439.607105  0.005606 -2.509397  0.016066
   scf:   10   -64439.535444   -64439.535450   -64439.607127  0.002629 -2.509575  0.007002
   scf:   11   -64439.535453   -64439.535454   -64439.607131  0.000620 -2.509701  0.006320
   scf:   12   -64439.535375   -64439.535434   -64439.607111  0.003199 -2.509801  0.013807
   scf:   13   -64439.535446   -64439.535458   -64439.607135  0.002950 -2.509858  0.005160
   scf:   14   -64439.535456   -64439.535458   -64439.607136  0.000488 -2.509946  0.004932
   scf:   15   -64439.535424   -64439.535450   -64439.607126  0.002122 -2.509987  0.009098
   scf:   16   -64439.535444   -64439.535458   -64439.607135  0.002368 -2.510025  0.006146
   scf:   17   -64439.535458   -64439.535459   -64439.607136  0.000652 -2.510064  0.004496
   scf:   18   -64439.535408   -64439.535445   -64439.607122  0.002455 -2.510091  0.010923
   scf:   19   -64439.535449   -64439.535459   -64439.607136  0.002453 -2.510106  0.004921
   scf:   20   -64439.535458   -64439.535460   -64439.607137  0.000588 -2.510128  0.004014
   scf:   21   -64439.535432   -64439.535452   -64439.607129  0.001851 -2.510140  0.007979
   scf:   22   -64439.535446   -64439.535458   -64439.607135  0.002170 -2.510149  0.005919
   scf:   23   -64439.535458   -64439.535460   -64439.607137  0.000675 -2.510159  0.004026
   scf:   24   -64439.535419   -64439.535448   -64439.607125  0.002204 -2.510166  0.009828
   scf:   25   -64439.535450   -64439.535459   -64439.607136  0.002238 -2.510169  0.004762
   scf:   26   -64439.535458   -64439.535460   -64439.607137  0.000601 -2.510175  0.003633
   scf:   27   -64439.535437   -64439.535454   -64439.607130  0.001676 -2.510178  0.007300
   scf:   28   -64439.535447   -64439.535458   -64439.607135  0.002012 -2.510180  0.005704
   scf:   29   -64439.535459   -64439.535460   -64439.607137  0.000677 -2.510182  0.003683
   scf:   30   -64439.535426   -64439.535450   -64439.607127  0.001994 -2.510184  0.008991
   scf:   31   -64439.535451   -64439.535459   -64439.607136  0.002053 -2.510185  0.004562
   scf:   32   -64439.535459   -64439.535460   -64439.607137  0.000602 -2.510186  0.003280
   scf:   33   -64439.535441   -64439.535455   -64439.607132  0.001519 -2.510187  0.006733
   scf:   34   -64439.535449   -64439.535459   -64439.607136  0.001866 -2.510188  0.005437
   scf:   35   -64439.535459   -64439.535460   -64439.607137  0.000674 -2.510188  0.003335
   scf:   36   -64439.535433   -64439.535452   -64439.607129  0.001802 -2.510189  0.008240
   scf:   37   -64439.535452   -64439.535459   -64439.607137  0.001882 -2.510189  0.004339
   scf:   38   -64439.535459   -64439.535460   -64439.607137  0.000599 -2.510189  0.002943
   scf:   39   -64439.535445   -64439.535456   -64439.607133  0.001374 -2.510189  0.006214
   scf:   40   -64439.535450   -64439.535459   -64439.607136  0.001730 -2.510189  0.005168
   scf:   41   -64439.535460   -64439.535460   -64439.607137  0.000668 -2.510190  0.003008
   scf:   42   -64439.535438   -64439.535454   -64439.607131  0.001625 -2.510190  0.007542
   scf:   43   -64439.535453   -64439.535460   -64439.607137  0.001724 -2.510190  0.004117
   scf:   44   -64439.535459   -64439.535460   -64439.607137  0.000593 -2.510190  0.002635
   scf:   45   -64439.535447   -64439.535457   -64439.607134  0.001242 -2.510190  0.005729
   scf:   46   -64439.535451   -64439.535459   -64439.607136  0.001604 -2.510190  0.004907
   scf:   47   -64439.535460   -64439.535460   -64439.607137  0.000659 -2.510190  0.002710
   scf:   48   -64439.535442   -64439.535455   -64439.607132  0.001462 -2.510190  0.006890
   scf:   49   -64439.535454   -64439.535460   -64439.607137  0.001577 -2.510190  0.003903
   scf:   50   -64439.535459   -64439.535460   -64439.607137  0.000584 -2.510190  0.002356
   scf:   51   -64439.535450   -64439.535457   -64439.607134  0.001120 -2.510190  0.005273
   scf:   52   -64439.535452   -64439.535459   -64439.607136  0.001486 -2.510190  0.004657
   scf:   53   -64439.535460   -64439.535460   -64439.607137  0.000648 -2.510190  0.002439
   scf:   54   -64439.535446   -64439.535456   -64439.607133  0.001313 -2.510190  0.006282
   scf:   55   -64439.535454   -64439.535460   -64439.607137  0.001443 -2.510190  0.003698
   scf:   56   -64439.535460   -64439.535460   -64439.607138  0.000573 -2.510190  0.002105
   scf:   57   -64439.535452   -64439.535458   -64439.607135  0.001009 -2.510190  0.004845
   scf:   58   -64439.535453   -64439.535459   -64439.607136  0.001376 -2.510190  0.004419
   scf:   59   -64439.535460   -64439.535460   -64439.607138  0.000635 -2.510190  0.002194
   scf:   60   -64439.535449   -64439.535457   -64439.607134  0.001177 -2.510190  0.005716
   scf:   61   -64439.535455   -64439.535460   -64439.607137  0.001318 -2.510190  0.003502
   scf:   62   -64439.535460   -64439.535461   -64439.607138  0.000561 -2.510190  0.001880
   scf:   63   -64439.535454   -64439.535458   -64439.607136  0.000907 -2.510190  0.004445
   scf:   64   -64439.535454   -64439.535459   -64439.607136  0.001275 -2.510190  0.004191
   scf:   65   -64439.535460   -64439.535461   -64439.607138  0.000621 -2.510190  0.001973
   scf:   66   -64439.535451   -64439.535458   -64439.607135  0.001053 -2.510190  0.005192
   scf:   67   -64439.535456   -64439.535460   -64439.607137  0.001204 -2.510190  0.003314
   scf:   68   -64439.535460   -64439.535461   -64439.607138  0.000547 -2.510190  0.001678
   scf:   69   -64439.535455   -64439.535459   -64439.607136  0.000814 -2.510190  0.004071
   scf:   70   -64439.535454   -64439.535459   -64439.607136  0.001180 -2.510190  0.003974
   scf:   71   -64439.535460   -64439.535461   -64439.607138  0.000605 -2.510190  0.001772
   scf:   72   -64439.535453   -64439.535458   -64439.607135  0.000940 -2.510190  0.004707
   scf:   73   -64439.535456   -64439.535460   -64439.607137  0.001100 -2.510190  0.003134
   scf:   74   -64439.535460   -64439.535461   -64439.607138  0.000532 -2.510190  0.001496
   scf:   75   -64439.535456   -64439.535459   -64439.607136  0.000729 -2.510190  0.003723
   scf:   76   -64439.535455   -64439.535460   -64439.607137  0.001093 -2.510190  0.003767
   scf:   77   -64439.535460   -64439.535461   -64439.607138  0.000589 -2.510190  0.001591
   scf:   78   -64439.535455   -64439.535459   -64439.607136  0.000838 -2.510190  0.004262
   scf:   79   -64439.535457   -64439.535460   -64439.607137  0.001005 -2.510190  0.002963
   scf:   80   -64439.535460   -64439.535461   -64439.607138  0.000516 -2.510190  0.001332
   scf:   81   -64439.535457   -64439.535460   -64439.607137  0.000653 -2.510190  0.003401
   scf:   82   -64439.535455   -64439.535460   -64439.607137  0.001012 -2.510190  0.003568
   scf:   83   -64439.535460   -64439.535461   -64439.607138  0.000572 -2.510190  0.001428
   scf:   84   -64439.535456   -64439.535459   -64439.607136  0.000746 -2.510190  0.003853
   scf:   85   -64439.535457   -64439.535460   -64439.607137  0.000918 -2.510190  0.002798
   scf:   86   -64439.535460   -64439.535461   -64439.607138  0.000500 -2.510190  0.001196
   scf:   87   -64439.535458   -64439.535460   -64439.607137  0.000583 -2.510190  0.003102
   scf:   88   -64439.535456   -64439.535460   -64439.607137  0.000937 -2.510190  0.003378
   scf:   89   -64439.535460   -64439.535461   -64439.607138  0.000554 -2.510190  0.001280
   scf:   90   -64439.535457   -64439.535460   -64439.607137  0.000663 -2.510190  0.003479
   scf:   91   -64439.535458   -64439.535460   -64439.607137  0.000845 -2.510190  0.002641
   scf:   92   -64439.535460   -64439.535461   -64439.607138  0.000483 -2.510190  0.001146
   scf:   93   -64439.535458   -64439.535460   -64439.607137  0.000520 -2.510190  0.002826
   scf:   94   -64439.535457   -64439.535460   -64439.607137  0.000868 -2.510190  0.003196
   scf:   95   -64439.535460   -64439.535461   -64439.607138  0.000536 -2.510190  0.001146
   scf:   96   -64439.535458   -64439.535460   -64439.607137  0.000588 -2.510190  0.003137
   scf:   97   -64439.535458   -64439.535460   -64439.607137  0.000778 -2.510190  0.002491
   scf:   98   -64439.535460   -64439.535461   -64439.607138  0.000465 -2.510190  0.001097
   scf:   99   -64439.535459   -64439.535460   -64439.607137  0.000462 -2.510190  0.002572
   scf:  100   -64439.535457   -64439.535460   -64439.607137  0.000804 -2.510190  0.003022
   scf:  101   -64439.535460   -64439.535461   -64439.607138  0.000517 -2.510190  0.001025
   scf:  102   -64439.535458   -64439.535460   -64439.607137  0.000520 -2.510190  0.002827
   scf:  103   -64439.535458   -64439.535460   -64439.607137  0.000717 -2.510190  0.002347
   scf:  104   -64439.535460   -64439.535461   -64439.607138  0.000448 -2.510190  0.001049
   scf:  105   -64439.535459   -64439.535460   -64439.607137  0.000411 -2.510190  0.002339
   scf:  106   -64439.535457   -64439.535460   -64439.607137  0.000744 -2.510190  0.002855
   scf:  107   -64439.535461   -64439.535461   -64439.607138  0.000499 -2.510190  0.000915
   scf:  108   -64439.535459   -64439.535460   -64439.607137  0.000460 -2.510190  0.002544
   scf:  109   -64439.535459   -64439.535460   -64439.607137  0.000660 -2.510190  0.002209
   scf:  110   -64439.535460   -64439.535461   -64439.607138  0.000430 -2.510190  0.001001
   scf:  111   -64439.535459   -64439.535460   -64439.607137  0.000364 -2.510190  0.002125
   scf:  112   -64439.535458   -64439.535460   -64439.607137  0.000689 -2.510190  0.002694
   scf:  113   -64439.535461   -64439.535461   -64439.607138  0.000480 -2.510190  0.000816
   scf:  114   -64439.535459   -64439.535460   -64439.607137  0.000405 -2.510190  0.002288
   scf:  115   -64439.535459   -64439.535460   -64439.607137  0.000608 -2.510190  0.002077
   scf:  116   -64439.535460   -64439.535461   -64439.607138  0.000412 -2.510190  0.000955
   scf:  117   -64439.535460   -64439.535460   -64439.607138  0.000322 -2.510190  0.001928
   scf:  118   -64439.535458   -64439.535460   -64439.607137  0.000638 -2.510190  0.002539
   scf:  119   -64439.535461   -64439.535461   -64439.607138  0.000461 -2.510190  0.000727
   scf:  120   -64439.535460   -64439.535460   -64439.607137  0.000357 -2.510190  0.002057
   scf:  121   -64439.535459   -64439.535460   -64439.607137  0.000560 -2.510190  0.001950
   scf:  122   -64439.535460   -64439.535461   -64439.607138  0.000394 -2.510190  0.000910
   scf:  123   -64439.535460   -64439.535460   -64439.607138  0.000284 -2.510190  0.001749
   scf:  124   -64439.535458   -64439.535460   -64439.607137  0.000595 -2.510190  0.002390
   scf:  125   -64439.535461   -64439.535461   -64439.607138  0.000441 -2.510190  0.000691
   scf:  126   -64439.535460   -64439.535460   -64439.607138  0.000314 -2.510190  0.001847
   scf:  127   -64439.535459   -64439.535460   -64439.607137  0.000516 -2.510190  0.001829
   scf:  128   -64439.535460   -64439.535461   -64439.607138  0.000377 -2.510190  0.000867
   scf:  129   -64439.535460   -64439.535461   -64439.607138  0.000250 -2.510190  0.001585
   scf:  130   -64439.535459   -64439.535460   -64439.607137  0.000556 -2.510190  0.002247
   scf:  131   -64439.535461   -64439.535461   -64439.607138  0.000422 -2.510190  0.000662
   scf:  132   -64439.535460   -64439.535461   -64439.607138  0.000275 -2.510190  0.001659
   scf:  133   -64439.535459   -64439.535460   -64439.607138  0.000476 -2.510190  0.001713
   scf:  134   -64439.535461   -64439.535461   -64439.607138  0.000359 -2.510190  0.000825
   scf:  135   -64439.535460   -64439.535461   -64439.607138  0.000220 -2.510190  0.001436
   scf:  136   -64439.535459   -64439.535460   -64439.607137  0.000518 -2.510190  0.002109
   scf:  137   -64439.535461   -64439.535461   -64439.607138  0.000403 -2.510190  0.000634
   scf:  138   -64439.535460   -64439.535461   -64439.607138  0.000241 -2.510190  0.001488
   scf:  139   -64439.535460   -64439.535461   -64439.607138  0.000439 -2.510190  0.001602
   scf:  140   -64439.535461   -64439.535461   -64439.607138  0.000342 -2.510190  0.000785
   scf:  141   -64439.535460   -64439.535461   -64439.607138  0.000193 -2.510190  0.001300
   scf:  142   -64439.535459   -64439.535460   -64439.607137  0.000483 -2.510190  0.001976
   scf:  143   -64439.535461   -64439.535461   -64439.607138  0.000384 -2.510190  0.000606
   scf:  144   -64439.535460   -64439.535461   -64439.607138  0.000210 -2.510190  0.001335
   scf:  145   -64439.535460   -64439.535461   -64439.607138  0.000405 -2.510190  0.001496
   scf:  146   -64439.535461   -64439.535461   -64439.607138  0.000325 -2.510190  0.000746
   scf:  147   -64439.535460   -64439.535461   -64439.607138  0.000168 -2.510190  0.001176
   scf:  148   -64439.535459   -64439.535460   -64439.607137  0.000451 -2.510190  0.001849
   scf:  149   -64439.535461   -64439.535461   -64439.607138  0.000366 -2.510190  0.000579
   scf:  150   -64439.535460   -64439.535461   -64439.607138  0.000183 -2.510190  0.001197
   scf:  151   -64439.535460   -64439.535461   -64439.607138  0.000373 -2.510190  0.001395
   scf:  152   -64439.535461   -64439.535461   -64439.607138  0.000309 -2.510190  0.000709
   scf:  153   -64439.535461   -64439.535461   -64439.607138  0.000146 -2.510190  0.001064
   scf:  154   -64439.535459   -64439.535460   -64439.607137  0.000420 -2.510190  0.001726
   scf:  155   -64439.535461   -64439.535461   -64439.607138  0.000347 -2.510190  0.000552
   scf:  156   -64439.535461   -64439.535461   -64439.607138  0.000159 -2.510190  0.001073
   scf:  157   -64439.535460   -64439.535461   -64439.607138  0.000344 -2.510190  0.001298
   scf:  158   -64439.535461   -64439.535461   -64439.607138  0.000293 -2.510190  0.000674
   scf:  159   -64439.535461   -64439.535461   -64439.607138  0.000127 -2.510190  0.000962
   scf:  160   -64439.535460   -64439.535460   -64439.607138  0.000391 -2.510190  0.001607
   scf:  161   -64439.535461   -64439.535461   -64439.607138  0.000329 -2.510190  0.000527
   scf:  162   -64439.535461   -64439.535461   -64439.607138  0.000137 -2.510190  0.000962
   scf:  163   -64439.535460   -64439.535461   -64439.607138  0.000317 -2.510190  0.001206
   scf:  164   -64439.535461   -64439.535461   -64439.607138  0.000277 -2.510190  0.000640
   scf:  165   -64439.535461   -64439.535461   -64439.607138  0.000110 -2.510190  0.000870
   scf:  166   -64439.535460   -64439.535460   -64439.607138  0.000363 -2.510190  0.001494
   scf:  167   -64439.535461   -64439.535461   -64439.607138  0.000311 -2.510190  0.000502
   scf:  168   -64439.535461   -64439.535461   -64439.607138  0.000118 -2.510190  0.000862
   scf:  169   -64439.535460   -64439.535461   -64439.607138  0.000292 -2.510190  0.001118
   scf:  170   -64439.535461   -64439.535461   -64439.607138  0.000262 -2.510190  0.000608
   scf:  171   -64439.535461   -64439.535461   -64439.607138  0.000094 -2.510190  0.000786

SCF Convergence by DM+H criterion
max |DM_out - DM_in|         :     0.0000941087
max |H_out - H_in|      (eV) :     0.0007858002
SCF cycle converged after 171 iterations

Using DM_out to compute the final energy and forces
No. of atoms with KB's overlaping orbs in proc 0. Max # of overlaps:      16      99

siesta: E_KS(eV) =           -64439.5355

siesta: Atomic forces (eV/Ang):
----------------------------------------
   Tot   -0.174371   -0.174371   -0.025453
----------------------------------------
   Max    1.921092
   Res    1.377522    sqrt( Sum f_i^2 / 3N )
----------------------------------------
   Max    1.921092    constrained

Stress tensor Voigt[x,y,z,yz,xz,xy] (kbar):       22.22       22.22       13.19        0.01        0.01       -0.01
(Free)E + p*V (eV/cell)   -64476.7905
Target enthalpy (eV/cell)   -64439.6071

siesta: Stress tensor (static) (eV/Ang**3):
         0.013867   -0.000006    0.000005
        -0.000006    0.013867    0.000005
         0.000005    0.000005    0.008230

siesta: Pressure (static):        -19.20660609  kBar

siesta: Stress tensor (total) (eV/Ang**3):
         0.013867   -0.000006    0.000005
        -0.000006    0.013867    0.000005
         0.000005    0.000005    0.008230

siesta: Pressure (total):        -19.20660609  kBar

                     ====================================
                        Begin CG opt. move =      2
                     ====================================

outcell: Unit cell vectors (Ang):
       15.786005   -0.000679   -0.000447
       -0.000679   15.786005   -0.000447
       -0.000332   -0.000332   11.868851

outcell: Cell vector modules (Ang)   :   15.786005   15.786005   11.868851
outcell: Cell angles (23,13,12) (deg):     90.0032     90.0032     90.0049
outcell: Cell volume (Ang**3)        :   2957.6935
<dSpData1D:S at geom step 2
  <sparsity:sparsity for geom step 2
    nrows_g=304 nrows=304 sparsity=.5005 nnzs=46252, refcount: 7>
  <dData1D:(new from dSpData1D) n=46252, refcount: 1>
refcount: 1>
new_DM -- step:     3
Re-using DM from previous geometries...
Number of DMs in history: 1
 DM extrapolation coefficients: 
1   1.00000
New DM after history re-use:
<dSpData2D:SpM extrapolated using coords
  <sparsity:sparsity for geom step 2
    nrows_g=304 nrows=304 sparsity=.5005 nnzs=46252, refcount: 9>
  <dData2D:(temp array for extrapolation) n=46252 m=1, refcount: 1>
refcount: 1>
Note: For starting DM, Qtot, Tr[D*S] =        304.00000000        304.71472605
No. of atoms with KB's overlaping orbs in proc 0. Max # of overlaps:      16      99

InitMesh: MESH = 180 x 180 x 128 = 4147200
InitMesh: Mesh cutoff (required, used) =   300.000   321.443 Ry
New grid distribution [1]: sub = 2

        iscf     Eharris(eV)        E_KS(eV)     FreeEng(eV)     dDmax    Ef(eV) dHmax(eV)
   scf:    1   -64461.698434   -64441.587093   -64441.658766  0.059735 -2.436851  1.391368
   scf:    2   -64420.208902   -64435.104709   -64435.176281  0.438402 -2.572990  7.647315
   scf:    3   -64443.094699   -64441.997043   -64442.068695  0.387086 -2.462263  0.220087
   scf:    4   -64441.998503   -64442.004692   -64442.076073  0.048835 -2.458260  0.240024
   scf:    5   -64441.982338   -64442.006228   -64442.077600  0.076815 -2.458248  0.233056
   scf:    6   -64442.014867   -64442.014218   -64442.085892  0.041920 -2.458344  0.040751
   scf:    7   -64442.015098   -64442.014762   -64442.086435  0.005564 -2.458629  0.027218
   scf:    8   -64442.014169   -64442.014701   -64442.086366  0.011047 -2.458896  0.051607
   scf:    9   -64442.014831   -64442.014953   -64442.086627  0.009256 -2.459029  0.017016
   scf:   10   -64442.015015   -64442.015000   -64442.086675  0.002856 -2.459291  0.010219
   scf:   11   -64442.015016   -64442.015011   -64442.086686  0.000982 -2.459478  0.005219
   scf:   12   -64442.015020   -64442.015017   -64442.086692  0.000469 -2.459608  0.003394
   scf:   13   -64442.015021   -64442.015019   -64442.086694  0.000323 -2.459732  0.003157
   scf:   14   -64442.015018   -64442.015019   -64442.086694  0.000722 -2.459822  0.003586
   scf:   15   -64442.015018   -64442.015020   -64442.086695  0.000827 -2.459858  0.002941
   scf:   16   -64442.015021   -64442.015021   -64442.086696  0.000465 -2.459913  0.001136
   scf:   17   -64442.015022   -64442.015021   -64442.086696  0.000145 -2.459953  0.000959
   scf:   18   -64442.015022   -64442.015022   -64442.086697  0.000102 -2.459982  0.000974
   scf:   19   -64442.015021   -64442.015022   -64442.086697  0.000247 -2.460002  0.001152
   scf:   20   -64442.015022   -64442.015022   -64442.086697  0.000235 -2.460013  0.000780
   scf:   21   -64442.015022   -64442.015022   -64442.086697  0.000095 -2.460028  0.000333

SCF Convergence by DM+H criterion
max |DM_out - DM_in|         :     0.0000950481
max |H_out - H_in|      (eV) :     0.0003325087
SCF cycle converged after 21 iterations

Using DM_out to compute the final energy and forces
No. of atoms with KB's overlaping orbs in proc 0. Max # of overlaps:      16      99

siesta: E_KS(eV) =           -64442.0150

siesta: Atomic forces (eV/Ang):
----------------------------------------
   Tot   -0.131238   -0.131238   -0.039500
----------------------------------------
   Max    1.497493
   Res    1.084403    sqrt( Sum f_i^2 / 3N )
----------------------------------------
   Max    1.497493    constrained

Stress tensor Voigt[x,y,z,yz,xz,xy] (kbar):       18.46       18.46        9.70       -0.02       -0.02       -0.06
(Free)E + p*V (eV/cell)   -64470.7758
Target enthalpy (eV/cell)   -64442.0867

siesta: Stress tensor (static) (eV/Ang**3):
         0.011522   -0.000038   -0.000015
        -0.000038    0.011522   -0.000015
        -0.000015   -0.000015    0.006055

siesta: Pressure (static):        -15.54084832  kBar

siesta: Stress tensor (total) (eV/Ang**3):
         0.011522   -0.000038   -0.000015
        -0.000038    0.011522   -0.000015
        -0.000015   -0.000015    0.006055

siesta: Pressure (total):        -15.54084832  kBar

                     ====================================
                        Begin CG opt. move =      3
                     ====================================

outcell: Unit cell vectors (Ang):
       15.441893   -0.001175   -0.000773
       -0.001175   15.441893   -0.000773
       -0.000575   -0.000575   11.710441

outcell: Cell vector modules (Ang)   :   15.441893   15.441893   11.710441
outcell: Cell angles (23,13,12) (deg):     90.0057     90.0057     90.0087
outcell: Cell volume (Ang**3)        :   2792.3788
<dSpData1D:S at geom step 3
  <sparsity:sparsity for geom step 3
    nrows_g=304 nrows=304 sparsity=.5118 nnzs=47296, refcount: 7>
  <dData1D:(new from dSpData1D) n=47296, refcount: 1>
refcount: 1>
new_DM -- step:     4
Re-using DM from previous geometries...
Number of DMs in history: 1
 DM extrapolation coefficients: 
1   1.00000
New DM after history re-use:
<dSpData2D:SpM extrapolated using coords
  <sparsity:sparsity for geom step 3
    nrows_g=304 nrows=304 sparsity=.5118 nnzs=47296, refcount: 9>
  <dData2D:(temp array for extrapolation) n=47296 m=1, refcount: 1>
refcount: 1>
Note: For starting DM, Qtot, Tr[D*S] =        304.00000000        304.68083979
No. of atoms with KB's overlaping orbs in proc 0. Max # of overlaps:      16      99

InitMesh: MESH = 162 x 162 x 128 = 3359232
InitMesh: Mesh cutoff (required, used) =   300.000   304.180 Ry
New grid distribution [1]: sub = 2

        iscf     Eharris(eV)        E_KS(eV)     FreeEng(eV)     dDmax    Ef(eV) dHmax(eV)
   scf:    1   -64462.660873   -64443.572757   -64443.644431  0.060014 -2.369577  1.177190
   scf:    2   -64429.655437   -64439.419356   -64439.491023  0.314895 -2.513000  6.165645
   scf:    3   -64444.660023   -64443.924386   -64443.996057  0.270819 -2.396834  0.189804
   scf:    4   -64443.949923   -64443.938894   -64444.010550  0.013336 -2.395326  0.096278
   scf:    5   -64443.920915   -64443.936015   -64444.007301  0.052654 -2.395826  0.239984
   scf:    6   -64443.938675   -64443.942945   -64444.014602  0.050005 -2.395867  0.071738
   scf:    7   -64443.944675   -64443.944043   -64444.015717  0.009584 -2.396297  0.019739
   scf:    8   -64443.944193   -64443.944171   -64444.015842  0.004507 -2.396726  0.030931
   scf:    9   -64443.943594   -64443.944108   -64444.015773  0.010040 -2.396789  0.037606
   scf:   10   -64443.944322   -64443.944294   -64444.015968  0.006023 -2.397022  0.005554
   scf:   11   -64443.944317   -64443.944307   -64444.015981  0.000622 -2.397211  0.005408
   scf:   12   -64443.944275   -64443.944301   -64444.015975  0.002211 -2.397354  0.011554
   scf:   13   -64443.944308   -64443.944313   -64444.015987  0.001999 -2.397371  0.003706
   scf:   14   -64443.944316   -64443.944315   -64444.015989  0.000468 -2.397451  0.002012
   scf:   15   -64443.944316   -64443.944316   -64444.015990  0.000315 -2.397510  0.002008
   scf:   16   -64443.944314   -64443.944316   -64444.015990  0.000558 -2.397528  0.002454
   scf:   17   -64443.944316   -64443.944316   -64444.015990  0.000403 -2.397552  0.001056
   scf:   18   -64443.944317   -64443.944317   -64444.015991  0.000160 -2.397571  0.000904
   scf:   19   -64443.944317   -64443.944317   -64444.015991  0.000083 -2.397583  0.000452

SCF Convergence by DM+H criterion
max |DM_out - DM_in|         :     0.0000830416
max |H_out - H_in|      (eV) :     0.0004520335
SCF cycle converged after 19 iterations

Using DM_out to compute the final energy and forces
No. of atoms with KB's overlaping orbs in proc 0. Max # of overlaps:      16      99

siesta: E_KS(eV) =           -64443.9443

siesta: Atomic forces (eV/Ang):
----------------------------------------
   Tot    0.005155    0.005155   -0.009705
----------------------------------------
   Max    0.973197
   Res    0.617856    sqrt( Sum f_i^2 / 3N )
----------------------------------------
   Max    0.973197    constrained

Stress tensor Voigt[x,y,z,yz,xz,xy] (kbar):       10.19       10.19        2.34       -0.03       -0.03       -0.07
(Free)E + p*V (eV/cell)   -64457.2198
Target enthalpy (eV/cell)   -64444.0160

siesta: Stress tensor (static) (eV/Ang**3):
         0.006363   -0.000043   -0.000021
        -0.000043    0.006363   -0.000021
        -0.000021   -0.000021    0.001460

siesta: Pressure (static):         -7.57592989  kBar

siesta: Stress tensor (total) (eV/Ang**3):
         0.006363   -0.000043   -0.000021
        -0.000043    0.006363   -0.000021
        -0.000021   -0.000021    0.001460

siesta: Pressure (total):         -7.57592989  kBar

                     ====================================
                        Begin CG opt. move =      4
                     ====================================

outcell: Unit cell vectors (Ang):
       15.097782   -0.001671   -0.001100
       -0.001671   15.097782   -0.001100
       -0.000818   -0.000818   11.552030

outcell: Cell vector modules (Ang)   :   15.097782   15.097782   11.552030
outcell: Cell angles (23,13,12) (deg):     90.0082     90.0082     90.0127
outcell: Cell volume (Ang**3)        :   2633.2044
<dSpData1D:S at geom step 4
  <sparsity:sparsity for geom step 4
    nrows_g=304 nrows=304 sparsity=.5131 nnzs=47416, refcount: 7>
  <dData1D:(new from dSpData1D) n=47416, refcount: 1>
refcount: 1>
new_DM -- step:     5
Re-using DM from previous geometries...
Number of DMs in history: 1
 DM extrapolation coefficients: 
1   1.00000
New DM after history re-use:
<dSpData2D:SpM extrapolated using coords
  <sparsity:sparsity for geom step 4
    nrows_g=304 nrows=304 sparsity=.5131 nnzs=47416, refcount: 9>
  <dData2D:(temp array for extrapolation) n=47416 m=1, refcount: 1>
refcount: 1>
Note: For starting DM, Qtot, Tr[D*S] =        304.00000000        304.46475933
No. of atoms with KB's overlaping orbs in proc 0. Max # of overlaps:      16      99

InitMesh: MESH = 160 x 160 x 128 = 3276800
InitMesh: Mesh cutoff (required, used) =   300.000   310.396 Ry
New grid distribution [1]: sub = 2

        iscf     Eharris(eV)        E_KS(eV)     FreeEng(eV)     dDmax    Ef(eV) dHmax(eV)
   scf:    1   -64456.265029   -64443.974120   -64444.045793  0.061227 -2.306964  0.714472
   scf:    2   -64440.549257   -64443.015225   -64443.086860  0.147645 -2.409898  2.948472
   scf:    3   -64444.319902   -64444.151041   -64444.222707  0.131482 -2.328753  0.117418
   scf:    4   -64444.169314   -64444.161852   -64444.233488  0.019197 -2.330518  0.103631
   scf:    5   -64444.144691   -64444.159124   -64444.230444  0.049315 -2.331543  0.215074
   scf:    6   -64444.163912   -64444.165523   -64444.237192  0.041068 -2.331684  0.044032
   scf:    7   -64444.166677   -64444.166215   -64444.237888  0.006385 -2.332096  0.017082
   scf:    8   -64444.166176   -64444.166290   -64444.237959  0.006181 -2.332513  0.035599
   scf:    9   -64444.166072   -64444.166361   -64444.238030  0.008684 -2.332524  0.025973
   scf:   10   -64444.166493   -64444.166460   -64444.238134  0.003819 -2.332698  0.005323
   scf:   11   -64444.166481   -64444.166473   -64444.238146  0.000855 -2.332830  0.006864
   scf:   12   -64444.166434   -64444.166466   -64444.238140  0.002376 -2.332885  0.011217
   scf:   13   -64444.166480   -64444.166480   -64444.238154  0.001778 -2.332915  0.002919
   scf:   14   -64444.166483   -64444.166482   -64444.238156  0.000329 -2.332955  0.002067
   scf:   15   -64444.166482   -64444.166483   -64444.238156  0.000474 -2.332983  0.002930
   scf:   16   -64444.166482   -64444.166483   -64444.238157  0.000597 -2.332985  0.002062
   scf:   17   -64444.166484   -64444.166483   -64444.238157  0.000241 -2.332995  0.000724
   scf:   18   -64444.166484   -64444.166484   -64444.238157  0.000119 -2.333001  0.001012
   scf:   19   -64444.166484   -64444.166484   -64444.238157  0.000206 -2.333002  0.001029
   scf:   20   -64444.166484   -64444.166484   -64444.238157  0.000153 -2.333003  0.000515
   scf:   21   -64444.166484   -64444.166484   -64444.238157  0.000052 -2.333002  0.000321

SCF Convergence by DM+H criterion
[...]
        -0.000008   -0.000031    0.000372

siesta: Pressure (static):         -0.21499295  kBar

siesta: Stress tensor (total) (eV/Ang**3):
        -0.000104   -0.000071   -0.000008
        -0.000071    0.000135   -0.000031
        -0.000008   -0.000031    0.000372

siesta: Pressure (total):         -0.21499295  kBar

                     ====================================
                        Begin CG opt. move =     98
                     ====================================

outcell: Unit cell vectors (Ang):
       14.693513    0.851989    1.063180
        0.851989   14.509512    1.041767
        0.790384    0.774465   13.760111

outcell: Cell vector modules (Ang)   :   14.756543   14.571792   13.804534
outcell: Cell angles (23,13,12) (deg):     82.5031     82.4110     83.0583
outcell: Cell volume (Ang**3)        :   2900.9640
<dSpData1D:S at geom step 98
  <sparsity:sparsity for geom step 98
    nrows_g=304 nrows=304 sparsity=.5551 nnzs=51300, refcount: 7>
  <dData1D:(new from dSpData1D) n=51300, refcount: 1>
refcount: 1>
new_DM -- step:    99
Re-using DM from previous geometries...
Number of DMs in history: 1
 DM extrapolation coefficients: 
1   1.00000
New DM after history re-use:
<dSpData2D:SpM extrapolated using coords
  <sparsity:sparsity for geom step 98
    nrows_g=304 nrows=304 sparsity=.5551 nnzs=51300, refcount: 9>
  <dData2D:(temp array for extrapolation) n=51300 m=1, refcount: 1>
refcount: 1>
No. of atoms with KB's overlaping orbs in proc 0. Max # of overlaps:      16      89

InitMesh: MESH = 160 x 150 x 144 = 3456000
InitMesh: Mesh cutoff (required, used) =   300.000   301.281 Ry
New grid distribution [1]: sub = 2

        iscf     Eharris(eV)        E_KS(eV)     FreeEng(eV)     dDmax    Ef(eV) dHmax(eV)
   scf:    1   -64447.648211   -64447.421015   -64447.467026  0.022050 -2.801863  0.215419
   scf:    2   -64447.028199   -64447.300410   -64447.345228  0.044734 -2.822582  1.199437
   scf:    3   -64447.442075   -64447.425748   -64447.472267  0.037287 -2.806693  0.020982
   scf:    4   -64447.426933   -64447.426401   -64447.472352  0.001873 -2.806197  0.016388
   scf:    5   -64447.425733   -64447.426083   -64447.472386  0.000998 -2.806299  0.006474
   scf:    6   -64447.426229   -64447.426157   -64447.472396  0.000258 -2.806285  0.002318
   scf:    7   -64447.426093   -64447.426126   -64447.472399  0.000253 -2.806259  0.002680
   scf:    8   -64447.426186   -64447.426156   -64447.472401  0.000200 -2.806264  0.001556
   scf:    9   -64447.426116   -64447.426136   -64447.472401  0.000120 -2.806265  0.001195
   scf:   10   -64447.426152   -64447.426144   -64447.472402  0.000040 -2.806268  0.000632

SCF Convergence by DM+H criterion
max |DM_out - DM_in|         :     0.0000397057
max |H_out - H_in|      (eV) :     0.0006316728
SCF cycle converged after 10 iterations

Using DM_out to compute the final energy and forces
No. of atoms with KB's overlaping orbs in proc 0. Max # of overlaps:      16      89

siesta: E_KS(eV) =           -64447.4261

siesta: Atomic forces (eV/Ang):
----------------------------------------
   Tot   -0.029533    0.009819    0.002359
----------------------------------------
   Max    0.310987
   Res    0.116548    sqrt( Sum f_i^2 / 3N )
----------------------------------------
   Max    0.310987    constrained

Stress tensor Voigt[x,y,z,yz,xz,xy] (kbar):       -0.42       -0.02        0.39        0.01        0.03       -0.11
(Free)E + p*V (eV/cell)   -64447.4404
Target enthalpy (eV/cell)   -64447.4724

siesta: Stress tensor (static) (eV/Ang**3):
        -0.000265   -0.000069    0.000019
        -0.000069   -0.000010    0.000009
         0.000019    0.000009    0.000241

siesta: Pressure (static):          0.01766727  kBar

siesta: Stress tensor (total) (eV/Ang**3):
        -0.000265   -0.000069    0.000019
        -0.000069   -0.000010    0.000009
         0.000019    0.000009    0.000241

siesta: Pressure (total):          0.01766727  kBar

cgvc: Finished line minimization   36.  Mean atomic displacement =    0.0745

                     ====================================
                        Begin CG opt. move =     99
                     ====================================

outcell: Unit cell vectors (Ang):
       14.798765    0.882833    1.038729
        0.882833   14.503875    1.017873
        0.772206    0.756701   13.724419

outcell: Cell vector modules (Ang)   :   14.861420   14.566326   13.766938
outcell: Cell angles (23,13,12) (deg):     82.6580     82.5998     82.8547
outcell: Cell volume (Ang**3)        :   2913.4607
<dSpData1D:S at geom step 99
  <sparsity:sparsity for geom step 99
    nrows_g=304 nrows=304 sparsity=.5461 nnzs=50464, refcount: 7>
  <dData1D:(new from dSpData1D) n=50464, refcount: 1>
refcount: 1>
new_DM -- step:   100
Re-using DM from previous geometries...
Number of DMs in history: 1
 DM extrapolation coefficients: 
1   1.00000
New DM after history re-use:
<dSpData2D:SpM extrapolated using coords
  <sparsity:sparsity for geom step 99
    nrows_g=304 nrows=304 sparsity=.5461 nnzs=50464, refcount: 9>
  <dData2D:(temp array for extrapolation) n=50464 m=1, refcount: 1>
refcount: 1>
No. of atoms with KB's overlaping orbs in proc 0. Max # of overlaps:      16      87

InitMesh: MESH = 160 x 150 x 144 = 3456000
InitMesh: Mesh cutoff (required, used) =   300.000   301.576 Ry
New grid distribution [1]: sub = 2

        iscf     Eharris(eV)        E_KS(eV)     FreeEng(eV)     dDmax    Ef(eV) dHmax(eV)
   scf:    1   -64446.592978   -64447.420835   -64447.467321  0.058197 -2.809774  0.870427
   scf:    2   -64444.774244   -64446.615076   -64446.661645  0.130951 -2.737681  4.486797
   scf:    3   -64447.586446   -64447.466589   -64447.513287  0.106102 -2.798534  0.087718
   scf:    4   -64447.463779   -64447.466262   -64447.514550  0.008306 -2.799768  0.070316
   scf:    5   -64447.468195   -64447.467440   -64447.515109  0.003248 -2.799589  0.027027
   scf:    6   -64447.467467   -64447.467463   -64447.515260  0.000749 -2.799980  0.012393
   scf:    7   -64447.467648   -64447.467563   -64447.515337  0.000811 -2.800177  0.010575
   scf:    8   -64447.467399   -64447.467488   -64447.515351  0.000662 -2.800243  0.006842
   scf:    9   -64447.467566   -64447.467529   -64447.515358  0.000354 -2.800256  0.003399
   scf:   10   -64447.467530   -64447.467530   -64447.515362  0.000175 -2.800274  0.002760
   scf:   11   -64447.467513   -64447.467522   -64447.515364  0.000204 -2.800291  0.002327
   scf:   12   -64447.467542   -64447.467532   -64447.515365  0.000176 -2.800294  0.001797
   scf:   13   -64447.467515   -64447.467524   -64447.515365  0.000074 -2.800298  0.000826

SCF Convergence by DM+H criterion
max |DM_out - DM_in|         :     0.0000741084
max |H_out - H_in|      (eV) :     0.0008262356
SCF cycle converged after 13 iterations

Using DM_out to compute the final energy and forces
No. of atoms with KB's overlaping orbs in proc 0. Max # of overlaps:      16      87

siesta: E_KS(eV) =           -64447.4675

siesta: Atomic forces (eV/Ang):
----------------------------------------
   Tot   -0.024579    0.014185    0.009792
----------------------------------------
   Max    0.414008
   Res    0.129990    sqrt( Sum f_i^2 / 3N )
----------------------------------------
   Max    0.414008    constrained

Stress tensor Voigt[x,y,z,yz,xz,xy] (kbar):        0.63        0.98       -0.11        0.19        0.04       -0.24
(Free)E + p*V (eV/cell)   -64448.4251
Target enthalpy (eV/cell)   -64447.5154

siesta: Stress tensor (static) (eV/Ang**3):
         0.000395   -0.000151    0.000024
        -0.000151    0.000613    0.000116
         0.000024    0.000116   -0.000070

siesta: Pressure (static):         -0.50029022  kBar

siesta: Stress tensor (total) (eV/Ang**3):
         0.000395   -0.000151    0.000024
        -0.000151    0.000613    0.000116
         0.000024    0.000116   -0.000070

siesta: Pressure (total):         -0.50029022  kBar

                     ====================================
                        Begin CG opt. move =    100
                     ====================================

outcell: Unit cell vectors (Ang):
       14.796465    0.882159    1.039263
        0.882159   14.503998    1.018395
        0.772603    0.757090   13.725199

outcell: Cell vector modules (Ang)   :   14.859127   14.566444   13.767759
outcell: Cell angles (23,13,12) (deg):     82.6546     82.5957     82.8591
outcell: Cell volume (Ang**3)        :   2913.1893
<dSpData1D:S at geom step 100
  <sparsity:sparsity for geom step 100
    nrows_g=304 nrows=304 sparsity=.5461 nnzs=50464, refcount: 7>
  <dData1D:(new from dSpData1D) n=50464, refcount: 1>
refcount: 1>
new_DM -- step:   101
Re-using DM from previous geometries...
Number of DMs in history: 1
 DM extrapolation coefficients: 
1   1.00000
New DM after history re-use:
<dSpData2D:SpM extrapolated using coords
  <sparsity:sparsity for geom step 100
    nrows_g=304 nrows=304 sparsity=.5461 nnzs=50464, refcount: 9>
  <dData2D:(temp array for extrapolation) n=50464 m=1, refcount: 1>
refcount: 1>
No. of atoms with KB's overlaping orbs in proc 0. Max # of overlaps:      16      87

InitMesh: MESH = 160 x 150 x 144 = 3456000
InitMesh: Mesh cutoff (required, used) =   300.000   301.569 Ry
New grid distribution [1]: sub = 2

        iscf     Eharris(eV)        E_KS(eV)     FreeEng(eV)     dDmax    Ef(eV) dHmax(eV)
   scf:    1   -64447.481013   -64447.467486   -64447.515351  0.001397 -2.800265  0.018081
   scf:    2   -64447.466757   -64447.467318   -64447.515053  0.002751 -2.801690  0.084832
   scf:    3   -64447.467452   -64447.467518   -64447.515371  0.002231 -2.800515  0.001790
   scf:    4   -64447.467548   -64447.467533   -64447.515372  0.000166 -2.800487  0.001523
   scf:    5   -64447.467532   -64447.467533   -64447.515372  0.000090 -2.800488  0.000522

SCF Convergence by DM+H criterion
max |DM_out - DM_in|         :     0.0000903840
max |H_out - H_in|      (eV) :     0.0005219468
SCF cycle converged after 5 iterations

Using DM_out to compute the final energy and forces
No. of atoms with KB's overlaping orbs in proc 0. Max # of overlaps:      16      87

siesta: E_KS(eV) =           -64447.4675

siesta: Atomic forces (eV/Ang):
----------------------------------------
   Tot   -0.024793    0.014605    0.009932
----------------------------------------
   Max    0.410410
   Res    0.128073    sqrt( Sum f_i^2 / 3N )
----------------------------------------
   Max    0.410410    constrained

Stress tensor Voigt[x,y,z,yz,xz,xy] (kbar):        0.61        0.96       -0.10        0.18        0.03       -0.24
(Free)E + p*V (eV/cell)   -64448.4050
Target enthalpy (eV/cell)   -64447.5154

siesta: Stress tensor (static) (eV/Ang**3):
         0.000380   -0.000148    0.000021
        -0.000148    0.000601    0.000114
         0.000021    0.000114   -0.000065

siesta: Pressure (static):         -0.48929300  kBar

siesta: Stress tensor (total) (eV/Ang**3):
         0.000380   -0.000148    0.000021
        -0.000148    0.000601    0.000114
         0.000021    0.000114   -0.000065

siesta: Pressure (total):         -0.48929300  kBar

cgvc: Finished line minimization   37.  Mean atomic displacement =    0.0729

outcoor: Final (unrelaxed) atomic coordinates (Ang):        
    0.07399972    0.03871613    0.30656953   1       1  Au
    0.18516941    2.10640332    1.91094333   1       2  Au
    2.13942043    0.27502370    1.92907218   1       3  Au
    1.85683952    1.82219333   -0.33170871   1       4  Au
    0.93680231    4.23616499    0.45350756   1       5  Au
    1.21458505    6.21437207    2.49352427   1       6  Au
    1.95185074    3.71871909    2.87732246   1       7  Au
    2.95364422    6.01724603    0.62213812   1       8  Au
    4.30776780    0.90065011    0.48518735   1       9  Au
    3.85070983    1.97772863    2.90745179   1      10  Au
    6.34251237    1.20789580    2.50988328   1      11  Au
    6.12013107    2.89048278    0.59498139   1      12  Au
    3.69846885    3.62065965   -0.15158537   1      13  Au
    3.84773405    5.57206984    3.13016808   1      14  Au
    5.77122530    3.78379438    3.14986132   1      15  Au
    5.49148291    5.39763233    0.92113166   1      16  Au

outcell: Unit cell vectors (Ang):
       14.796465    0.882159    1.039263
        0.882159   14.503998    1.018395
        0.772603    0.757090   13.725199

outcell: Cell vector modules (Ang)   :   14.859127   14.566444   13.767759
outcell: Cell angles (23,13,12) (deg):     82.6546     82.5957     82.8591
outcell: Cell volume (Ang**3)        :   2913.1893

coxmol: Writing XMOL coordinates into file AuRel.xyz                                                                                                                                                                                                                           

siesta: Program's energy decomposition (eV):
siesta: Ebs     =    -10083.732865
siesta: Eions   =     81244.997452
siesta: Ena     =      7530.675508
siesta: Ekin    =     18692.680338
siesta: Enl     =      1072.176623
siesta: Eso     =         0.000000
siesta: Edftu   =         0.000000
siesta: DEna    =       827.727275
siesta: DUscf   =        36.889072
siesta: DUext   =         0.000000
siesta: Ex      =    -10710.153081
siesta: Ec      =      -652.465815
siesta: Exc     =    -11362.618896
siesta: EbV     =         0.000000
siesta: eta*DQ  =         0.000000
siesta: Emadel  =         0.000000
siesta: Emeta   =         0.000000
siesta: Emolmec =         0.000000
siesta: Ekinion =         0.000000
siesta: Eharris =    -64447.467532
siesta: Etot    =    -64447.467533
siesta: FreeEng =    -64447.515372

siesta: Final energy (eV):
siesta:  Band Struct. =  -10083.732865
siesta:       Kinetic =   18692.680338
siesta:       Hartree =   91550.018794
siesta:         Edftu =       0.000000
siesta:       Eso     =       0.000000
siesta:    Ext. field =       0.000000
siesta:         Exch. =  -10710.153081
siesta:         Corr. =    -652.465815
siesta:     Bulk bias =       0.000000
siesta:   Exch.-corr. =  -11362.618896
siesta:  Ion-electron = -203708.601224
siesta:       Ion-ion =   40381.053456
siesta:       Ekinion =       0.000000
siesta: D3 dispersion =       0.000000
siesta:         Total =  -64447.467533
siesta:         Fermi =      -2.800488

siesta: Atomic forces (eV/Ang):
siesta:      1   -0.030686   -0.133752    0.043671
siesta:      2   -0.177753   -0.059243   -0.072695
siesta:      3   -0.026845    0.157766   -0.007849
siesta:      4    0.083400    0.127059    0.142062
siesta:      5    0.276629    0.005297   -0.181806
siesta:      6    0.026384   -0.010184    0.018591
siesta:      7    0.215504   -0.064453    0.137896
siesta:      8    0.026580    0.066130   -0.072027
siesta:      9   -0.042131    0.219402   -0.075583
siesta:     10    0.045442    0.266827    0.041741
siesta:     11    0.007277   -0.088986    0.020581
siesta:     12    0.024065    0.031210   -0.149589
siesta:     13   -0.136811   -0.163907    0.127138
siesta:     14   -0.014196   -0.410410   -0.038782
siesta:     15   -0.183752    0.132340    0.038576
siesta:     16   -0.117902   -0.060491    0.038007
siesta: ----------------------------------------
siesta:    Tot   -0.024793    0.014605    0.009932

siesta: Stress tensor (static) (eV/Ang**3):
siesta:     0.000380   -0.000148    0.000021
siesta:    -0.000148    0.000601    0.000114
siesta:     0.000021    0.000114   -0.000065

siesta: Constrained stress tensor (static) (eV/Ang**3):
siesta:     0.000380   -0.000148    0.000021
siesta:    -0.000148    0.000601    0.000114
siesta:     0.000021    0.000114   -0.000065

siesta: Cell volume =       2913.189289 Ang**3

siesta: Pressure (static):
siesta:                Solid            Molecule  Units
siesta:          -0.00000333          0.00000011  Ry/Bohr**3
siesta:          -0.00030539          0.00000984  eV/Ang**3
siesta:          -0.48929300          0.01576986  kBar
(Free)E+ p_basis*V_orbitals  =      -64440.811244
(Free)Eharris+ p_basis*V_orbitals  =      -64440.811243

siesta: Electric dipole (a.u.)  =    0.067800    0.017758    0.120650
siesta: Electric dipole (Debye) =    0.172330    0.045137    0.306661

cite: Please see "AuRel.bib" for an exhaustive BiBTeX file.
cite: Please clearly indicate Siesta version in published work: 5.2.1
cite: This calculation has made use of the following articles
cite: which are encouraged to be cited in a published work.
        Primary SIESTA paper
          DOI: www.doi.org/10.1088/0953-8984/14/11/302


timer: Elapsed wall time (sec) =    2272.798
timer: CPU execution times (sec):

Routine            Calls   Time/call    Tot.time        %
siesta                 1    4174.138    4174.138   100.00
Setup                  1       0.892       0.892     0.02
bands                  1       0.000       0.000     0.00
KSV_init               1       0.000       0.000     0.00
IterGeom             101      41.319    4173.246    99.98
geom_init            101       2.002     202.157     4.84
state_init           101       0.016       1.574     0.04
hsparse              101       0.002       0.175     0.00
overlap              101       0.013       1.296     0.03
Setup_H0             101       1.017     102.754     2.46
naefs                202       0.000       0.009     0.00
dnaefs               202       0.000       0.005     0.00
MolMec               202       0.000       0.000     0.00
kinefsm              202       0.012       2.360     0.06
nlefsm               202       0.027       5.481     0.13
DHSCF_Init           101       0.978      98.807     2.37
DHSCF1               101       0.020       2.041     0.05
InitMesh             101       0.020       2.039     0.05
INITMESH             101       0.000       0.000     0.00
DHSCF2               101       0.958      96.766     2.32
REMESH               101       0.066       6.672     0.16
REORD               5519       0.004      24.316     0.58
PHION                101       0.587      59.329     1.42
COMM_BSC            8311       0.003      26.505     0.63
POISON              2103       0.197     413.903     9.92
fft                 4206       0.079     331.848     7.95
setup_H             1901       1.717    3264.586    78.21
DHSCF               2002       1.723    3449.525    82.64
DHSCF3              2002       1.675    3353.718    80.35
rhoofd              2002       0.735    1472.241    35.27
XC                  2002       0.462     924.156    22.14
GXC-CellXC          2002       0.445     890.865    21.34
gridxc@cellXC       2002       0.445     890.853    21.34
vmat                2002       0.111     222.269     5.32
IterSCF             1800       2.096    3771.966    90.37
compute_dm          1800       0.335     602.966    14.45
diagon              1800       0.334     601.185    14.40
r-eigvec            1800       0.082     148.239     3.55
r-buildHS           1800       0.000       0.269     0.01
rdiag               1800       0.082     147.950     3.54
rdiag1              1800       0.004       8.017     0.19
rdiag2              1800       0.009      17.049     0.41
rdiag3              1800       0.066     118.719     2.84
rdiag4              1800       0.002       3.874     0.09
r-buildD            1800       0.250     450.103    10.78
MIXER               1699       0.000       0.517     0.01
PostSCF              101       1.971     199.044     4.77
FINAL_HF             101       1.971     199.042     4.77
DHSCF4               101       0.948      95.790     2.29
dfscf                101       0.814      82.184     1.97
overfsm              101       0.011       1.074     0.03
writeHSX             101       0.001       0.058     0.00
state_analysis       101       0.000       0.016     0.00
siesta_move          101       0.000       0.029     0.00
Analysis               1       0.000       0.000     0.00
optical                1       0.000       0.000     0.00
  

>> End of run:   4-JUN-2025  16:44:32
Job completed
Job completed
