<preamble>

<basis_specs>
===============================================================================
O                    Z=   8    Mass=  15.999        Charge= 0.17977+309
Lmxo=2 Lmxkb= 2    BasisType=split      Semic=F
L=0  Nsemic=0  Cnfigmx=2
          i=1  nzeta=2  polorb=0  (2s)
            splnorm:   0.15000    
               vcte:    40.000    
               rinn:    2.8961    
               qcoe:    0.0000    
               qyuk:    0.0000    
               qwid:   0.10000E-01
                rcs:    3.2147      2.2063    
            lambdas:    1.0000      1.0000    
L=1  Nsemic=0  Cnfigmx=2
          i=1  nzeta=2  polorb=1  (2p)  (to be polarized perturbatively)
            splnorm:   0.15000    
               vcte:    40.000    
               rinn:    3.4379    
               qcoe:    0.0000    
               qyuk:    0.0000    
               qwid:   0.10000E-01
                rcs:    3.8199      2.6013    
            lambdas:    1.0000      1.0000    
L=2  Nsemic=0  Cnfigmx=3
          i=1  nzeta=0  polorb=0  (3d)  (perturbative polarization orbital) (from 2p)
-------------------------------------------------------------------------------
L=0  Nkbl=1  erefs: 0.17977+309
L=1  Nkbl=1  erefs: 0.17977+309
L=2  Nkbl=1  erefs: 0.17977+309
===============================================================================
</basis_specs>

<pseudopotential_header>
 O  pb nrl pcec
 ONCVPSP-3.2017-10-31Hamann's oncvpsp                        
 2s 2.00  r= 1.36/2p 4.00  r= 1.46/3d 0.00  r= 1.26/                    2s:2p:
</pseudopotential_header>
</preamble>
O                             # Symbol
O                             # Label
    8                         # Atomic number
     6.00000000000                             # Valence charge
     15.9990000000        # Mass 
     48.1918756383        # Self energy 
   2   5                      # Lmax for basis, no. of nl orbitals 
   2   5                      # Lmax for projectors, no. of nl KB projectors
# PAOs:__________________________
  0  2  1  0  2.000000   #orbital l, n, z, is_polarized, population
 500    0.6442219244070469E-02     3.214667402791164     # npts, delta, cutoff
     0.000000000000000         1.387861823840839    
    0.6442219244070469E-02     1.387864328696187    
    0.1288443848814094E-01     1.387913342945884    
    0.1932665773221141E-01     1.387994909343909    
    0.2576887697628187E-01     1.388108815074327    
    0.3221109622035234E-01     1.388254768937365    
    0.3865331546442281E-01     1.388432398038245    
    0.4509553470849328E-01     1.388641247633900    
    0.5153775395256375E-01     1.388880781444721    
    0.5797997319663422E-01     1.389150382132401    
    0.6442219244070468E-01     1.389449351884248    
    0.7086441168477516E-01     1.389776913087973    
    0.7730663092884563E-01     1.390132209091807    
    0.8374885017291610E-01     1.390514305048175    
    0.9019106941698656E-01     1.390922188840349    
    0.9663328866105703E-01     1.391354772091974    
    0.1030755079051275         1.391810891259542    
    0.1095177271491980         1.392289308807997    
    0.1159599463932684         1.392788714469580    
    0.1224021656373389         1.393307726586109    
    0.1288443848814094         1.393844893534761    
    0.1352866041254799         1.394398695237360    
    0.1417288233695503         1.394967544753158    
    0.1481710426136208         1.395549789954901    
    0.1546132618576913         1.396143715287995    
    0.1610554811017617         1.396747543612308    
    0.1674977003458322         1.397359438126153    
    0.1739399195899027         1.397977504371783    
    0.1803821388339731         1.398599792321584    
    0.1868243580780436         1.399224298543964    
    0.1932665773221141         1.399848968447842    
    0.1997087965661845         1.400471698604366    
    0.2061510158102550         1.401090339144337    
    0.2125932350543255         1.401702696229623    
    0.2190354542983959         1.402306534596631    
    0.2254776735424664         1.402899580169704    
    0.2319198927865369         1.403479522742048    
    0.2383621120306073         1.404044018721697    
    0.2448043312746778         1.404590693939587    
    0.2512465505187483         1.405117146516891    
    0.2576887697628187         1.405620949788189    
    0.2641309890068892         1.406099655277149    
    0.2705732082509597         1.406550795720980    
    0.2770154274950302         1.406971888139752    
    0.2834576467391006         1.407360436946486    
    0.2898998659831711         1.407713937093720    
    0.2963420852272415         1.408029877252009    
    0.3027843044713120         1.408305743015663    
    0.3092265237153825         1.408539020130895    
    0.3156687429594530         1.408727197741267    
    0.3221109622035234         1.408867771645295    
    0.3285531814475939         1.408958247560809    
    0.3349954006916644         1.408996144390662    
    0.3414376199357348         1.408978997484178    
    0.3478798391798053         1.408904361888651    
    0.3543220584238758         1.408769815585123    
    0.3607642776679462         1.408572962702684    
    0.3672064969120167         1.408311436705328    
    0.3736487161560872         1.407982903545563    
    0.3800909354001576         1.407585064778837    
    0.3865331546442281         1.407115660632841    
    0.3929753738882986         1.406572473025962    
    0.3994175931323691         1.405953328528975    
    0.4058598123764395         1.405256101264252    
    0.4123020316205100         1.404478715736949    
    0.4187442508645804         1.403619149592544    
    0.4251864701086509         1.402675436295375    
    0.4316286893527214         1.401645667722997    
    0.4380709085967919         1.400527996671190    
    0.4445131278408623         1.399320639264843    
    0.4509553470849328         1.398021877270020    
    0.4573975663290032         1.396630060302759    
    0.4638397855730738         1.395143607930333    
    0.4702820048171442         1.393561011661326    
    0.4767242240612147         1.391880836820369    
    0.4831664433052851         1.390101724304705    
    0.4896086625493556         1.388222392219063    
    0.4960508817934261         1.386241637386301    
    0.5024931010374966         1.384158336731348    
    0.5089353202815671         1.381971448536180    
    0.5153775395256375         1.379680013564264    
    0.5218197587697080         1.377283156052838    
    0.5282619780137784         1.374780084572000    
    0.5347041972578489         1.372170092749823    
    0.5411464165019194         1.369452559863228    
    0.5475886357459898         1.366626951294305    
    0.5540308549900603         1.363692818852645    
    0.5604730742341307         1.360649800964205    
    0.5669152934782012         1.357497622727664    
    0.5733575127222718         1.354236095839706    
    0.5797997319663422         1.350865118390774    
    0.5862419512104127         1.347384674533379    
    0.5926841704544831         1.343794834025195    
    0.5991263896985536         1.340095751649524    
    0.6055686089426241         1.336287666516066    
    0.6120108281866945         1.332370901245116    
    0.6184530474307650         1.328345861038639    
    0.6248952666748354         1.324213032641866    
    0.6313374859189059         1.319972983199331    
    0.6377797051629764         1.315626359009457    
    0.6442219244070468         1.311173884182000    
    0.6506641436511174         1.306616359202832    
    0.6571063628951878         1.301954659410745    
    0.6635485821392583         1.297189733391005    
    0.6699908013833288         1.292322601290583    
    0.6764330206273992         1.287354353060122    
    0.6828752398714697         1.282286146627618    
    0.6893174591155401         1.277119206009051    
    0.6957596783596106         1.271854819361083    
    0.7022018976036811         1.266494336981054    
    0.7086441168477515         1.261039169259474    
    0.7150863360918220         1.255490784590177    
    0.7215285553358924         1.249850707251445    
    0.7279707745799630         1.244120515360420    
    0.7344129938240335         1.238301838293433    
    0.7408552130681039         1.232396354891866    
    0.7472974323121744         1.226405791092550    
    0.7537396515562448         1.220331917690147    
    0.7601818708003153         1.214176548090313    
    0.7666240900443858         1.207941536059079    
    0.7730663092884562         1.201628773472664    
    0.7795085285325267         1.195240188071716    
    0.7859507477765971         1.188777741223810    
    0.7923929670206676         1.182243425698006    
    0.7988351862647382         1.175639263454784    
    0.8052774055088086         1.168967303454564    
    0.8117196247528791         1.162229619488023    
    0.8181618439969495         1.155428308030864    
    0.8246040632410200         1.148565486125559    
    0.8310462824850905         1.141643289292678    
    0.8374885017291609         1.134663869473711    
    0.8439307209732314         1.127629393007223    
    0.8503729402173018         1.120542038640383    
    0.8568151594613723         1.113403995576970    
    0.8632573787054428         1.106217461563167    
    0.8696995979495132         1.098984641012436    
    0.8761418171935837         1.091707743169940    
    0.8825840364376542         1.084388980317397    
    0.8890262556817247         1.077030566018810    
    0.8954684749257952         1.069634713407095    
    0.9019106941698656         1.062203633512089    
    0.9083529134139361         1.054739533629543    
    0.9147951326580065         1.047244615731027    
    0.9212373519020770         1.039721074914495    
    0.9276795711461475         1.032171097894810    
    0.9341217903902179         1.024596861533914    
    0.9405640096342884         1.017000531409735    
    0.9470062288783588         1.009384260423236    
    0.9534484481224293         1.001750187442645    
    0.9598906673664999        0.9941004359840958    
    0.9663328866105703        0.9864371129275803    
    0.9727751058546408        0.9787623072674300    
    0.9792173250987112        0.9710780888961204    
    0.9856595443427817        0.9633865074205719    
    0.9921017635868522        0.9556895910098783    
    0.9985439828309226        0.9479893452734030    
     1.004986202074993        0.9402877521685343    
     1.011428421319064        0.9325867689367214    
     1.017870640563134        0.9248883270676188    
     1.024312859807204        0.9171943312895976    
     1.030755079051275        0.9095066585870418    
     1.037197298295345        0.9018271572423844    
     1.043639517539416        0.8941576459037307    
     1.050081736783486        0.8864999126761852    
     1.056523956027557        0.8788557142377875    
     1.062966175271627        0.8712267749784215    
     1.069408394515698        0.8636147861627306    
     1.075850613759768        0.8560214051158030    
     1.082292833003839        0.8484482544326338    
     1.088735052247909        0.8408969212104740    
     1.095177271491980        0.8333689563052123    
     1.101619490736050        0.8258658736111487    
     1.108061709980121        0.8183891493654938    
     1.114503929224191        0.8109402214771100    
     1.120946148468261        0.8035204888811042    
     1.127388367712332        0.7961313109189037    
     1.133830586956402        0.7887740067456691    
     1.140272806200473        0.7814498547646733    
     1.146715025444544        0.7741600920908198    
     1.153157244688614        0.7669059140430153    
     1.159599463932684        0.7596884736676159    
     1.166041683176755        0.7525088812929391    
     1.172483902420825        0.7453682041168879    
     1.178926121664896        0.7382674658280189    
     1.185368340908966        0.7312076462617528    
     1.191810560153037        0.7241896810926647    
     1.198252779397107        0.7172144615640977    
     1.204694998641178        0.7102828342561985    
     1.211137217885248        0.7033956008934694    
     1.217579437129318        0.6965535181929841    
     1.224021656373389        0.6897572977544543    
     1.230463875617460        0.6830076059928401    
     1.236906094861530        0.6763050641148762    
     1.243348314105601        0.6696502481398330    
     1.249790533349671        0.6630436889659714    
     1.256232752593741        0.6564858724828412    
     1.262674971837812        0.6499772397303523    
     1.269117191081882        0.6435181871051524    
     1.275559410325953        0.6371090666143449    
     1.282001629570023        0.6307501861775698    
     1.288443848814094        0.6244418099766682    
     1.294886068058164        0.6181841588540175    
     1.301328287302235        0.6119774107588113    
     1.307770506546305        0.6058217012406865    
     1.314212725790376        0.5997171239491060    
     1.320654945034446        0.5936637311894876    
     1.327097164278517        0.5876615348633587    
     1.333539383522587        0.5817105075190327    
     1.339981602766658        0.5758105820324738    
     1.346423822010728        0.5699616509600022    
     1.352866041254798        0.5641635682558017    
     1.359308260498869        0.5584161552814395    
     1.365750479742939        0.5527192081151032    
     1.372192698987010        0.5470725053527220    
     1.378634918231080        0.5414758153101045    
     1.385077137475151        0.5359289009320199    
     1.391519356719221        0.5304315198995547    
     1.397961575963292        0.5249834232311885    
     1.404403795207362        0.5195843549130122    
     1.410846014451433        0.5142340527241747    
     1.417288233695503        0.5089322488434797    
     1.423730452939574        0.5036786701866433    
     1.430172672183644        0.4984730386596049    
     1.436614891427715        0.4933150714594993    
     1.443057110671785        0.4882044813482507    
     1.449499329915855        0.4831409769961451    
     1.455941549159926        0.4781242632113237    
     1.462383768403996        0.4731540411680936    
     1.468825987648067        0.4682300087652104    
     1.475268206892137        0.4633518608249818    
     1.481710426136208        0.4585192893095734    
     1.488152645380278        0.4537319834291295    
     1.494594864624349        0.4489896300129032    
     1.501037083868419        0.4442919137233929    
     1.507479303112490        0.4396385172238921    
     1.513921522356560        0.4350291213329472    
     1.520363741600631        0.4304634052354949    
     1.526805960844701        0.4259410466631127    
     1.533248180088772        0.4214617220612077    
     1.539690399332842        0.4170251067528129    
     1.546132618576912        0.4126308750942461    
     1.552574837820983        0.4082787006261248    
     1.559017057065053        0.4039682562177902    
     1.565459276309124        0.3996992142057920    
     1.571901495553194        0.3954712465265989    
     1.578343714797265        0.3912840248438043    
     1.584785934041335        0.3871372206701063    
     1.591228153285406        0.3830305054840640    
     1.597670372529476        0.3789635508418984    
     1.604112591773547        0.3749360284846092    
     1.610554811017617        0.3709476104403623    
     1.616997030261688        0.3669979691224604    
     1.623439249505758        0.3630867774230886    
     1.629881468749829        0.3592137088028253    
     1.636323687993899        0.3553784373761671    
     1.642765907237969        0.3515806379932717    
     1.649208126482040        0.3478199863178436    
     1.655650345726110        0.3440961589015461    
     1.662092564970181        0.3404088332552898    
     1.668534784214251        0.3367576879165690    
     1.674977003458322        0.3331424025131166    
     1.681419222702392        0.3295626578241860    
     1.687861441946463        0.3260181358387530    
     1.694303661190533        0.3225085198153411    
     1.700745880434604        0.3190334943294971    
     1.707188099678674        0.3155927453270926    
     1.713630318922745        0.3121859601633393    
     1.720072538166815        0.3088128276574820    
     1.726514757410886        0.3054730381327606    
     1.732956976654956        0.3021662834543888    
     1.739399195899026        0.2988922570689642    
     1.745841415143097        0.2956506540285179    
     1.752283634387167        0.2924411710608340    
     1.758725853631238        0.2892635065649542    
     1.765168072875308        0.2861173606460681    
     1.771610292119379        0.2830024351502701    
     1.778052511363449        0.2799184336919860    
     1.784494730607520        0.2768650616775881    
     1.790936949851590        0.2738420263273456    
     1.797379169095661        0.2708490366958928    
     1.803821388339731        0.2678858036923252    
     1.810263607583802        0.2649520400986090    
     1.816705826827872        0.2620474605866303    
     1.823148046071943        0.2591717817336719    
     1.829590265316013        0.2563247220366035    
     1.836032484560083        0.2535060019248384    
     1.842474703804154        0.2507153437721001    
     1.848916923048225        0.2479524719070368    
     1.855359142292295        0.2452171126227222    
     1.861801361536365        0.2425089941850889    
     1.868243580780436        0.2398278468403381    
     1.874685800024506        0.2371734028213714    
     1.881128019268577        0.2345453963532693    
     1.887570238512647        0.2319435636578720    
     1.894012457756718        0.2293676429574879    
     1.900454677000788        0.2268173744777719    
     1.906896896244859        0.2242925004497972    
     1.913339115488929        0.2217927651113695    
     1.919781334733000        0.2193179147076031    
     1.926223553977070        0.2168676974907925    
     1.932665773221141        0.2144418637196112    
     1.939107992465211        0.2120401656576668    
     1.945550211709282        0.2096623575714374    
     1.951992430953352        0.2073081957276154    
     1.958434650197422        0.2049774383898898    
     1.964876869441493        0.2026698458151852    
     1.971319088685563        0.2003851802493855    
     1.977761307929634        0.1981232059225660    
     1.984203527173704        0.1958836890437513    
     1.990645746417775        0.1936663977952260    
     1.997087965661845        0.1914711023264157    
     2.003530184905916        0.1892975747473598    
     2.009972404149986        0.1871455891217960    
     2.016414623394057        0.1850149214598687    
     2.022856842638127        0.1829053497104902    
     2.029299061882198        0.1808166537533632    
     2.035741281126268        0.1787486153906838    
     2.042183500370339        0.1767010183385439    
     2.048625719614409        0.1746736482180412    
     2.055067938858480        0.1726662925461200    
     2.061510158102550        0.1706787407261530    
     2.067952377346621        0.1687107840382765    
     2.074394596590691        0.1667622156294965    
     2.080836815834761        0.1648328305035738    
     2.087279035078832        0.1629224255107034    
     2.093721254322902        0.1610307993370017    
     2.100163473566973        0.1591577524938068    
     2.106605692811043        0.1573030873068097    
     2.113047912055114        0.1554666079050230    
     2.119490131299184        0.1536481202095975    
     2.125932350543255        0.1518474319225011    
     2.132374569787325        0.1500643525150588    
     2.138816789031396        0.1482986932163776    
     2.145259008275466        0.1465502670016512    
     2.151701227519537        0.1448188885803622    
     2.158143446763607        0.1431043743843866    
     2.164585666007678        0.1414065425560060    
     2.171027885251748        0.1397252129358404    
     2.177470104495818        0.1380602070507027    
     2.183912323739889        0.1364113481013877    
     2.190354542983959        0.1347784609503991    
     2.196796762228030        0.1331613721096173    
     2.203238981472100        0.1315599097279242    
     2.209681200716171        0.1299739035787793    
     2.216123419960241        0.1284031850477621    
     2.222565639204312        0.1268475871200791    
     2.229007858448382        0.1253069443680453    
     2.235450077692453        0.1237810929385439    
     2.241892296936523        0.1222698705404704    
     2.248334516180594        0.1207731164321572    
     2.254776735424664        0.1192906714087988    
     2.261218954668735        0.1178223777898677    
     2.267661173912805        0.1163680794065327    
     2.274103393156875        0.1149276215890776    
     2.280545612400946        0.1135008511543311    
     2.286987831645016        0.1120876163931079    
     2.293430050889087        0.1106877670576624    
     2.299872270133157        0.1093011543491608    
     2.306314489377228        0.1079276309051732    
     2.312756708621298        0.1065670507871934    
     2.319198927865369        0.1052192694681825    
     2.325641147109439        0.1038841438201418    
     2.332083366353510        0.1025615321017177    
     2.338525585597580        0.1012512939458431    
     2.344967804841651        0.9995329034741531E-01
     2.351410024085721        0.9866738365101504E-01
     2.357852243329792        0.9739343753865731E-01
     2.364294462573862        0.9613131701759910E-01
     2.370736681817932        0.9488088840818555E-01
     2.377178901062003        0.9364201933174410E-01
     2.383621120306073        0.9241457869852583E-01
     2.390063339550144        0.9119843669570030E-01
     2.396505558794214        0.8999346477540310E-01
     2.402947778038285        0.8879953564283587E-01
     2.409389997282355        0.8761652324442397E-01
     2.415832216526426        0.8644430275602166E-01
     2.422274435770496        0.8528275057118850E-01
     2.428716655014567        0.8413174428951854E-01
     2.435158874258637        0.8299116270502971E-01
     2.441601093502708        0.8186088579461077E-01
     2.448043312746778        0.8074079470653844E-01
     2.454485531990849        0.7963077174905343E-01
     2.460927751234919        0.7853070037900368E-01
     2.467369970478989        0.7744046519054959E-01
     2.473812189723060        0.7635995190393055E-01
     2.480254408967130        0.7528904735431184E-01
     2.486696628211201        0.7422763948068717E-01
     2.493138847455271        0.7317561731485531E-01
     2.499581066699342        0.7213287097045978E-01
     2.506023285943412        0.7109929163209903E-01
     2.512465505187483        0.7007477154451314E-01
     2.518907724431553        0.6905920400183388E-01
     2.525349943675624        0.6805248333690879E-01
     2.531792162919694        0.6705450491068633E-01
     2.538234382163765        0.6606516510168790E-01
     2.544676601407835        0.6508436129554200E-01
     2.551118820651906        0.6411199187459270E-01
     2.557561039895976        0.6314795620758031E-01
     2.564003259140046        0.6219215463938565E-01
     2.570445478384117        0.6124448848086388E-01
     2.576887697628187        0.6030485999873861E-01
     2.583329916872258        0.5937317240557368E-01
     2.589772136116328        0.5844932984981326E-01
     2.596214355360399        0.5753323740589456E-01
     2.602656574604469        0.5662480106444377E-01
     2.609098793848540        0.5572392772253427E-01
     2.615541013092610        0.5483052517402432E-01
     2.621983232336681        0.5394450209995908E-01
     2.628425451580751        0.5306576805905239E-01
     2.634867670824822        0.5219423347824407E-01
     2.641309890068892        0.5132980964332391E-01
     2.647752109312963        0.5047240868963304E-01
     2.654194328557033        0.4962194359282685E-01
     2.660636547801103        0.4877832815972444E-01
     2.667078767045174        0.4794147701922496E-01
     2.673520986289244        0.4711130561329443E-01
     2.679963205533315        0.4628773018802754E-01
     2.686405424777385        0.4547066778477106E-01
     2.692847644021456        0.4466003623133217E-01
     2.699289863265526        0.4385575413325245E-01
     2.705732082509597        0.4305774086515198E-01
     2.712174301753667        0.4226591656214670E-01
     2.718616520997738        0.4148020211132526E-01
     2.725058740241808        0.4070051914331154E-01
     2.731500959485879        0.3992679002389010E-01
     2.737943178729949        0.3915893784569972E-01
     2.744385397974020        0.3839688642000026E-01
     2.750827617218090        0.3764056026849702E-01
     2.757269836462160        0.3688988461524809E-01
     2.763712055706231        0.3614478537863396E-01
     2.770154274950301        0.3540518916339389E-01
     2.776596494194372        0.3467102325273264E-01
     2.783038713438442        0.3394221560048433E-01
     2.789480932682513        0.3321869482335610E-01
     2.795923151926583        0.3250039019323286E-01
     2.802365371170654        0.3178723162954674E-01
     2.808807590414724        0.3107914969171541E-01
     2.815249809658795        0.3037607557163729E-01
     2.821692028902865        0.2967794108625831E-01
     2.828134248146936        0.2898467867020499E-01
     2.834576467391006        0.2829622136847707E-01
     2.841018686635077        0.2761250282920442E-01
     2.847460905879147        0.2693345729646653E-01
     2.853903125123217        0.2625901960317078E-01
     2.860345344367288        0.2558912516400336E-01
     2.866787563611358        0.2492370996843355E-01
     2.873229782855429        0.2426271057378093E-01
     2.879672002099499        0.2360606409834698E-01
     2.886114221343570        0.2295370821459295E-01
     2.892556440587640        0.2230558114239915E-01
     2.898998659831711        0.2166162164236963E-01
     2.905440879075782        0.2102176900919835E-01
     2.911883098319852        0.2038596306509832E-01
     2.918325317563922        0.1975414415566642E-01
     2.924767536807993        0.1912625328013121E-01
     2.931209756052063        0.1850223375331154E-01
     2.937651975296134        0.1788203856027484E-01
     2.944094194540204        0.1726564652120942E-01
     2.950536413784274        0.1665308425989227E-01
     2.956978633028345        0.1604444731017675E-01
     2.963420852272415        0.1543991509228594E-01
     2.969863071516486        0.1483975773957138E-01
     2.976305290760556        0.1424433526767173E-01
     2.982747510004627        0.1365409078609604E-01
     2.989189729248698        0.1306953971452869E-01
     2.995631948492768        0.1249125674615194E-01
     3.002074167736839        0.1191986191276258E-01
     3.008516386980909        0.1135600671479880E-01
     3.014958606224979        0.1080036094948967E-01
     3.021400825469050        0.1025360061770048E-01
     3.027843044713120        0.9716397108119695E-02
     3.034285263957191        0.9189407732589267E-02
     3.040727483201261        0.8673267604421199E-02
     3.047169702445331        0.8168582800521382E-02
     3.053611921689402        0.7675924718571175E-02
     3.060054140933472        0.7195825525455694E-02
     3.066496360177543        0.6728774587589500E-02
     3.072938579421614        0.6275215774223140E-02
     3.079380798665684        0.5835545528837110E-02
     3.085823017909755        0.5410111609667586E-02
     3.092265237153825        0.4999212407137882E-02
     3.098707456397896        0.4603096752687588E-02
     3.105149675641966        0.4221964139667810E-02
     3.111591894886036        0.3855965282031799E-02
     3.118034114130107        0.3505202940084932E-02
     3.124476333374177        0.3169732943825767E-02
     3.130918552618248        0.2849565342483252E-02
     3.137360771862318        0.2544665602057649E-02
     3.143802991106389        0.2254955758200481E-02
     3.150245210350459        0.1980315404408318E-02
     3.156687429594530        0.1720582345496320E-02
     3.163129648838600        0.1475552654102065E-02
     3.169571868082671        0.1244979692481241E-02
     3.176014087326741        0.1028571310373104E-02
     3.182456306570812        0.8259836747793694E-03
     3.188898525814882        0.6368084079679006E-03
     3.195340745058953        0.4605449542133280E-03
     3.201782964303023        0.2965349016349056E-03
     3.208225183547093        0.1437706492256511E-03
     3.214667402791164         0.000000000000000    
  0  2  2  0  0.000000   #orbital l, n, z, is_polarized, population
 500    0.4421401470150493E-02     2.206279333605096     # npts, delta, cutoff
     0.000000000000000         1.699491199354731    
    0.4421401470150493E-02     1.699482498308457    
    0.8842802940300987E-02     1.699527964936856    
    0.1326420441045148E-01     1.699603725778222    
    0.1768560588060197E-01     1.699709687877048    
    0.2210700735075247E-01     1.699845737387661    
    0.2652840882090296E-01     1.700011730601391    
    0.3094981029105345E-01     1.700207492722301    
    0.3537121176120395E-01     1.700432817624114    
    0.3979261323135444E-01     1.700687467836421    
    0.4421401470150493E-01     1.700971174609809    
    0.4863541617165543E-01     1.701283638018932    
    0.5305681764180592E-01     1.701624527089883    
    0.5747821911195641E-01     1.701993479946620    
    0.6189962058210691E-01     1.702390103974262    
    0.6632102205225740E-01     1.702813975998214    
    0.7074242352240789E-01     1.703264642478652    
    0.7516382499255839E-01     1.703741619720100    
    0.7958522646270888E-01     1.704244394096032    
    0.8400662793285937E-01     1.704772422288410    
    0.8842802940300987E-01     1.705325131542135    
    0.9284943087316036E-01     1.705901919934472    