<preamble>

<basis_specs>
===============================================================================
Ti                   Z=  22    Mass=  47.867        Charge= 0.17977+309
Lmxo=2 Lmxkb= 2    BasisType=split      Semic=T
L=0  Nsemic=1  Cnfigmx=4
          i=1  nzeta=1  polorb=0  (3s)  (semicore shell)
            splnorm:   0.15000    
               vcte:    40.000    
               rinn:    2.3743    
               qcoe:    0.0000    
               qyuk:    0.0000    
               qwid:   0.10000E-01
                rcs:    2.6354    
            lambdas:    1.0000    
          i=2  nzeta=2  polorb=0  (4s)  (to be polarized non-perturbatively)
            splnorm:   0.15000    
               vcte:    40.000    
               rinn:    6.1596    
               qcoe:    0.0000    
               qyuk:    0.0000    
               qwid:   0.10000E-01
                rcs:    6.8440      5.3013    
            lambdas:    1.0000      1.0000    
L=1  Nsemic=1  Cnfigmx=4
          i=1  nzeta=1  polorb=0  (3p)  (semicore shell)
            splnorm:   0.15000    
               vcte:    40.000    
               rinn:    2.6381    
               qcoe:    0.0000    
               qyuk:    0.0000    
               qwid:   0.10000E-01
                rcs:    2.9312    
            lambdas:    1.0000    
          i=2  nzeta=1  polorb=0  (4p)  (non-perturbative polarization shell)
            splnorm:   0.15000    
               vcte:    40.000    
               rinn:    6.1658    
               qcoe:   0.19310-311
               qyuk:   0.19763-322
               qwid:   0.21220-312
                rcs:    6.8440    
            lambdas:    1.0000    
L=2  Nsemic=0  Cnfigmx=3
          i=1  nzeta=2  polorb=0  (3d)
            splnorm:   0.15000    
               vcte:    40.000    
               rinn:    4.1053    
               qcoe:    0.0000    
               qyuk:    0.0000    
               qwid:   0.10000E-01
                rcs:    4.5569      3.1635    
            lambdas:    1.0000      1.0000    
-------------------------------------------------------------------------------
L=0  Nkbl=2  erefs: 0.17977+309 0.17977+309
L=1  Nkbl=2  erefs: 0.17977+309 0.17977+309
L=2  Nkbl=1  erefs: 0.17977+309
===============================================================================
</basis_specs>

<pseudopotential_header>
 Ti pb nrl pcec
 ONCVPSP-3.2017-10-31Hamann's oncvpsp                        
 3s 2.00  r= 1.36/3p 6.00  r= 1.31/3d 2.00  r= 1.66/                    3s:3p:3d:4s:
</pseudopotential_header>
</preamble>
Ti                            # Symbol
Ti                            # Label
   22                         # Atomic number
     12.0000000000                             # Valence charge
     47.8670000000        # Mass 
     177.050889327        # Self energy 
   2   7                      # Lmax for basis, no. of nl orbitals 
   2   6                      # Lmax for projectors, no. of nl KB projectors
# PAOs:__________________________
  0  3  1  0  2.000000   #orbital l, n, z, is_polarized, population
 500    0.5281402652597474E-02     2.635419923646139     # npts, delta, cutoff
     0.000000000000000        0.9550657919399708    
    0.5281402652597474E-02    0.9551325027173250    
    0.1056280530519495E-01    0.9553897264838801    
    0.1584420795779242E-01    0.9558182496615751    
    0.2112561061038989E-01    0.9564177525662556    
    0.2640701326298737E-01    0.9571877987934433    
    0.3168841591558484E-01    0.9581278294911661    
    0.3696981856818232E-01    0.9592371628862668    
    0.4225122122077979E-01    0.9605149945424858    
    0.4753262387337726E-01    0.9619603978477931    
    0.5281402652597474E-01    0.9635723246302987    
    0.5809542917857221E-01    0.9653496058750949    
    0.6337683183116968E-01    0.9672909525326748    
    0.6865823448376715E-01    0.9693949564150895    
    0.7393963713636463E-01    0.9716600911780420    
    0.7922103978896211E-01    0.9740847133878259    
    0.8450244244155958E-01    0.9766670636723682    
    0.8978384509415704E-01    0.9794052679557417    
    0.9506524774675452E-01    0.9822973387755524    
    0.1003466503993520        0.9853411766826020    
    0.1056280530519495        0.9885345717222197    
    0.1109094557045469        0.9918752049965928    
    0.1161908583571444        0.9953606503074087    
    0.1214722610097419        0.9989883758780590    
    0.1267536636623394         1.002755746154586    
    0.1320350663149368         1.006660023684541    
    0.1373164689675343         1.010698371072805    
    0.1425978716201318         1.014867853013417    
    0.1478792742727293         1.019165438396332    
    0.1531606769253267         1.023588002488027    
    0.1584420795779242         1.028132329184742    
    0.1637234822305217         1.032795113337106    
    0.1690048848831192         1.037572963144838    
    0.1742862875357166         1.042462402620083    
    0.1795676901883141         1.047459874117919    
    0.1848490928409116         1.052561740932477    
    0.1901304954935090         1.057764289957019    
    0.1954118981461065         1.063063734406253    
    0.2006933007987040         1.068456216599087    
    0.2059747034513015         1.073937810799906    
    0.2112561061038989         1.079504526116450    
    0.2165375087564964         1.085152309452172    
    0.2218189114090939         1.090877048510987    
    0.2271003140616914         1.096674574852151    
    0.2323817167142888         1.102540666992984    
    0.2376631193668863         1.108471053557025    
    0.2429445220194838         1.114461416465160    
    0.2482259246720813         1.120507394167150    
    0.2535073273246787         1.126604584910937    
    0.2587887299772762         1.132748550047009    
    0.2640701326298737         1.138934817365030    
    0.2693515352824711         1.145158884459861    
    0.2746329379350686         1.151416222124063    
    0.2799143405876661         1.157702277763856    
    0.2851957432402636         1.164012478835456    
    0.2904771458928611         1.170342236298683    
    0.2957585485454585         1.176686948084624    
    0.3010399511980560         1.183042002574113    
    0.3063213538506535         1.189402782083744    
    0.3116027565032509         1.195764666356035    
    0.3168841591558484         1.202123036050406    
    0.3221655618084459         1.208473276231499    
    0.3274469644610434         1.214810779851430    
    0.3327283671136408         1.221130951222451    
    0.3380097697662383         1.227429209476533    
    0.3432911724188358         1.233700992008368    
    0.3485725750714332         1.239941757898225    
    0.3538539777240307         1.246146991311150    
    0.3591353803766282         1.252312204868963    
    0.3644167830292257         1.258432942991536    
    0.3696981856818232         1.264504785203844    
    0.3749795883344206         1.270523349405267    
    0.3802609909870181         1.276484295097722    
    0.3855423936396156         1.282383326569160    
    0.3908237962922130         1.288216196029053    
    0.3961051989448105         1.293978706692507    
    0.4013866015974080         1.299666715809734    
    0.4066680042500055         1.305276137637613    
    0.4119494069026030         1.310802946350193    
    0.4172308095552004         1.316243178885040    
    0.4225122122077979         1.321592937722381    
    0.4277936148603954         1.326848393594134    
    0.4330750175129928         1.332005788119949    
    0.4383564201655903         1.337061436367534    
    0.4436378228181878         1.342011729334572    
    0.4489192254707853         1.346853136349728    
    0.4542006281233827         1.351582207390269    
    0.4594820307759802         1.356195575313976    
    0.4647634334285777         1.360689958003197    
    0.4700448360811751         1.365062160418891    
    0.4753262387337726         1.369309076562781    
    0.4806076413863701         1.373427691345774    
    0.4858890440389676         1.377415082360963    
    0.4911704466915651         1.381268421559680    
    0.4964518493441625         1.384984976829261    
    0.5017332519967600         1.388562113471181    
    0.5070146546493575         1.391997295578523    
    0.5122960573019549         1.395288087311838    
    0.5175774599545524         1.398432154072557    
    0.5228588626071499         1.401427263573363    
    0.5281402652597473         1.404271286804970    
    0.5334216679123448         1.406962198899046    
    0.5387030705649423         1.409498079887044    
    0.5439844732175397         1.411877115354936    
    0.5492658758701372         1.414097596993982    
    0.5545472785227348         1.416157923047807    
    0.5598286811753322         1.418056598656214    
    0.5651100838279297         1.419792236096335    
    0.5703914864805272         1.421363554921822    
    0.5756728891331246         1.422769382000963    
    0.5809542917857221         1.424008651454775    
    0.5862356944383196         1.425080404496176    
    0.5915170970909170         1.425983789171560    
    0.5967984997435145         1.426718060006205    
    0.6020799023961120         1.427282577555072    
    0.6073613050487094         1.427676807860648    
    0.6126427077013069         1.427900321819675    
    0.6179241103539044         1.427952794460641    
    0.6232055130065018         1.427834004134076    
    0.6284869156590993         1.427543831617789    
    0.6337683183116969         1.427082259139268    
    0.6390497209642944         1.426449369317573    
    0.6443311236168918         1.425645344027106    
    0.6496125262694893         1.424670463185784    
    0.6548939289220868         1.423525103470171    
    0.6601753315746842         1.422209736960216    
    0.6654567342272817         1.420724929716255    
    0.6707381368798792         1.419071340291089    
    0.6760195395324766         1.417249718179919    
    0.6813009421850741         1.415260902210994    
    0.6865823448376716         1.413105818879842    
    0.6918637474902690         1.410785480630021    
    0.6971451501428665         1.408300984083330    
    0.7024265527954640         1.405653508222426    
    0.7077079554480614         1.402844312528848    
    0.7129893581006589         1.399874735079338    
    0.7182707607532564         1.396746190603546    
    0.7235521634058539         1.393460168506023    
    0.7288335660584514         1.390018230855418    
    0.7341149687110489         1.386422010343864    
    0.7393963713636463         1.382673208219448    
    0.7446777740162438         1.378773592194611    
    0.7499591766688413         1.374724994333338    
    0.7552405793214387         1.370529308919914    
    0.7605219819740362         1.366188490312015    
    0.7658033846266337         1.361704550780807    
    0.7710847872792311         1.357079558342928    
    0.7763661899318286         1.352315638065841    
    0.7816475925844261         1.347414960735344    
    0.7869289952370235         1.342379747129166    
    0.7922103978896210         1.337212266415051    
    0.7974918005422185         1.331914832585659    
    0.8027732031948160         1.326489802278104    
    0.8080546058474135         1.320939572599763    
    0.8133360085000110         1.315266578962391    
    0.8186174111526084         1.309473292926565    
    0.8238988138052059         1.303562220058326    
    0.8291802164578034         1.297535897799848    
    0.8344616191104008         1.291396893355841    
    0.8397430217629983         1.285147801597351    
    0.8450244244155958         1.278791242984466    
    0.8503058270681932         1.272329861509443    
    0.8555872297207907         1.265766322661575    
    0.8608686323733882         1.259103311415113    
    0.8661500350259856         1.252343530241427    
    0.8714314376785831         1.245489697146532    
    0.8767128403311806         1.238544543734989    
    0.8819942429837780         1.231510813301121    
    0.8872756456363755         1.224391258948428    
    0.8925570482889731         1.217188641737952    
    0.8978384509415706         1.209905728866327    
    0.9031198535941680         1.202545291874125    
    0.9084012562467655         1.195110104885055    
    0.9136826588993630         1.187602942876486    
    0.9189640615519604         1.180026579981739    
    0.9242454642045579         1.172383787824486    
    0.9295268668571554         1.164677333885556    
    0.9348082695097528         1.156909979902368    
    0.9400896721623503         1.149084480301178    
    0.9453710748149478         1.141203580662274    
    0.9506524774675452         1.133270016218168    
    0.9559338801201427         1.125286510384889    
    0.9612152827727402         1.117255773326267    
    0.9664966854253376         1.109180500551284    
    0.9717780880779352         1.101063371544253    
    0.9770594907305327         1.092907048427924    
    0.9823408933831301         1.084714174659161    
    0.9876222960357276         1.076487373757225    
    0.9929036986883251         1.068229248064309    
    0.9981851013409225         1.059942377538253    
     1.003466503993520         1.051629318577182    
     1.008747906646117         1.043292602875800    
     1.014029309298715         1.034934736313206    
     1.019310711951313         1.026558197871852    
     1.024592114603910         1.018165438587591    
     1.029873517256507         1.009758880530351    
     1.035154919909105         1.001340915815425    
     1.040436322561702        0.9929139056449555    
     1.045717725214300        0.9844801793795049    
     1.050999127866897        0.9760420336394666    
     1.056280530519495        0.9676017314360480    
     1.061561933172092        0.9591615013317660    
     1.066843335824690        0.9507235366300936    
     1.072124738477287        0.9422899945942872    
     1.077406141129885        0.9338629956950935    
     1.082687543782482        0.9254446228872654    
     1.087968946435079        0.9170369209148278    
     1.093250349087677        0.9086418956448388    
     1.098531751740274        0.9002615134297747    
     1.103813154392872        0.8918977004982764    
     1.109094557045470        0.8835523423743630    
     1.114375959698067        0.8752272833250632    
     1.119657362350664        0.8669243258363578    
     1.124938765003262        0.8586452301176295    
     1.130220167655859        0.8503917136344500    
     1.135501570308457        0.8421654506698857    
     1.140782972961054        0.8339680719143638    
     1.146064375613652        0.8258011640840660    
     1.151345778266249        0.8176662695681103    
     1.156627180918847        0.8095648861044540    
     1.161908583571444        0.8014984664846928    
     1.167189986224042        0.7934684182879120    
     1.172471388876639        0.7854761036435912    
     1.177752791529237        0.7775228390238025    
     1.183034194181834        0.7696098950647561    
     1.188315596834432        0.7617384964178319    
     1.193596999487029        0.7539098216302165    
     1.198878402139627        0.7461250030552671    
     1.204159804792224        0.7383851267927078    
     1.209441207444822        0.7306912326587718    
     1.214722610097419        0.7230443141863939    
     1.220004012750016        0.7154453186554781    
     1.225285415402614        0.7078951471533516    
     1.230566818055211        0.7003946546654842    
     1.235848220707809        0.6929446501963994    
     1.241129623360406        0.6855458969208805    
     1.246411026013004        0.6781991123654815    
     1.251692428665601        0.6709049686201948    
     1.256973831318199        0.6636640925805253    
     1.262255233970796        0.6564770662192212    
     1.267536636623394        0.6493444268859653    
     1.272818039275991        0.6422666676444521    
     1.278099441928589        0.6352442376314539    
     1.283380844581186        0.6282775424399752    
     1.288662247233784        0.6213669445515907    
     1.293943649886381        0.6145127637798606    
     1.299225052538979        0.6077152777626936    
     1.304506455191576        0.6009747224204659    
     1.309787857844174        0.5942912925296630    
     1.315069260496771        0.5876651422734799    
     1.320350663149368        0.5810963856832798    
     1.325632065801966        0.5745850975106759    
     1.330913468454563        0.5681313140441246    
     1.336194871107161        0.5617350341739161    
     1.341476273759758        0.5553962187626804    
     1.346757676412356        0.5491147904571411    
     1.352039079064953        0.5428906343600135    
     1.357320481717551        0.5367236016668898    
     1.362601884370148        0.5306135145490226    
     1.367883287022746        0.5245601712904803    
     1.373164689675343        0.5185633519998097    
     1.378446092327941        0.5126228237726281    
     1.383727494980538        0.5067383453079656    
     1.389008897633136        0.5009096681146334    
     1.394290300285733        0.4951365360702438    
     1.399571702938331        0.4894186843040454    
     1.404853105590928        0.4837558391861511    
     1.410134508243525        0.4781477191167565    
     1.415415910896123        0.4725940351721627    
     1.420697313548720        0.4670944916011818    
     1.425978716201318        0.4616487860638699    
     1.431260118853915        0.4562566099669321    
     1.436541521506513        0.4509176487944436    
     1.441822924159110        0.4456315824360305    
     1.447104326811708        0.4403980855012444    
     1.452385729464305        0.4352168276238472    
     1.457667132116903        0.4300874737557644    
     1.462948534769500        0.4250096844517141    
     1.468229937422098        0.4199831161443806    
     1.473511340074695        0.4150074214105265    
     1.478792742727293        0.4100822492282558    
     1.484074145379890        0.4052072452256832    
     1.489355548032488        0.4003820519212823    
     1.494636950685085        0.3956063089561301    
     1.499918353337683        0.3908796533182844    
     1.505199755990280        0.3862017195595118    
     1.510481158642877        0.3815721400046181    
     1.515762561295475        0.3769905449535595    
     1.521043963948072        0.3724565628765300    
     1.526325366600670        0.3679698206022906    
     1.531606769253267        0.3635299434998807    
     1.536888171905865        0.3591365556539142    
     1.542169574558462        0.3547892800336342    
     1.547450977211060        0.3504877386559739    
     1.552732379863657        0.3462315527427228    
     1.558013782516255        0.3420203428719514    
     1.563295185168852        0.3378537291239807    
     1.568576587821450        0.3337313312219471    
     1.573857990474047        0.3296527686671527    
     1.579139393126645        0.3256176608693192    
     1.584420795779242        0.3216256272720149    
     1.589702198431840        0.3176762874732630    
     1.594983601084437        0.3137692613414615    
     1.600265003737035        0.3099041691269337    
     1.605546406389632        0.3060806315691676    
     1.610827809042229        0.3022982699999239    
     1.616109211694827        0.2985567064402773    
     1.621390614347424        0.2948555636976792    
     1.626672017000022        0.2911944654583934    
     1.631953419652619        0.2875730363716552    
     1.637234822305217        0.2839909021306355    
     1.642516224957814        0.2804476895575361    
     1.647797627610412        0.2769430266676282    
     1.653079030263009        0.2734765427714843    
     1.658360432915607        0.2700478685241823    
     1.663641835568204        0.2666566359916507    
     1.668923238220802        0.2633024787194058    
     1.674204640873399        0.2599850317874364    
     1.679486043525997        0.2567039318759913    
     1.684767446178594        0.2534588173221193    
     1.690048848831192        0.2502493281746615    
     1.695330251483789        0.2470751062155387    
     1.700611654136386        0.2439357950413361    
     1.705893056788984        0.2408310400939237    
     1.711174459441581        0.2377604887073761    
     1.716455862094179        0.2347237901542673    
     1.721737264746776        0.2317205956717746    
     1.727018667399374        0.2287505585022705    
     1.732300070051971        0.2258133339287504    
     1.737581472704569        0.2229085793069170    
     1.742862875357166        0.2200359540942715    
     1.748144278009764        0.2171951198786592    
     1.753425680662361        0.2143857404046288    
     1.758707083314959        0.2116074815980590    
     1.763988485967556        0.2088600115890557    
     1.769269888620154        0.2061430007331934    
     1.774551291272751        0.2034561216311174    
     1.779832693925349        0.2007990491466444    
     1.785114096577946        0.1981714604233597    
     1.790395499230544        0.1955730348997549    
     1.795676901883141        0.1930034543229457    
     1.800958304535738        0.1904624027610691    
     1.806239707188336        0.1879495666143612    
     1.811521109840933        0.1854646346249749    
     1.816802512493531        0.1830072978855629    
     1.822083915146128        0.1805772498466998    
     1.827365317798726        0.1781741863231670    
     1.832646720451323        0.1757978054991379    
     1.837928123103921        0.1734478079323035    
     1.843209525756518        0.1711238965569819    
     1.848490928409116        0.1688257766862464    
     1.853772331061713        0.1665531560131058    
     1.859053733714311        0.1643057446107741    
     1.864335136366908        0.1620832549320618    
     1.869616539019506        0.1598854018079207    
     1.874897941672103        0.1577119024451810    
     1.880179344324701        0.1555624764234994    
     1.885460746977298        0.1534368456915729    
     1.890742149629896        0.1513347345626117    
     1.896023552282493        0.1492558697091307    
     1.901304954935090        0.1471999801570730    
     1.906586357587688        0.1451667972793108    
     1.911867760240285        0.1431560547885158    
     1.917149162892883        0.1411674887294548    
     1.922430565545480        0.1392008374707260    
     1.927711968198078        0.1372558416959664    
     1.932993370850675        0.1353322443945426    
     1.938274773503273        0.1334297908517521    
     1.943556176155870        0.1315482286385639    
     1.948837578808468        0.1296873076009151    
     1.954118981461065        0.1278467798485936    
     1.959400384113663        0.1260263997437062    
     1.964681786766260        0.1242259238887752    
     1.969963189418858        0.1224451111144731    
     1.975244592071455        0.1206837224670171    
     1.980525994724053        0.1189415211952376    
     1.985807397376650        0.1172182727373413    
     1.991088800029247        0.1155137447073914    
     1.996370202681845        0.1138277068815109    
     2.001651605334442        0.1121599311838335    
     2.006933007987040        0.1105101916722216    
     2.012214410639638        0.1088782645237567    
     2.017495813292235        0.1072639280200269    
     2.022777215944832        0.1056669625322059    
     2.028058618597430        0.1040871505059743    
     2.033340021250027        0.1025242764462659    
     2.038621423902625        0.1009781269018620    
     2.043902826555222        0.9944849044984827E-01
     2.049184229207820        0.9793515767992575E-01
     2.054465631860417        0.9643792117864233E-01
     2.059747034513015        0.9495657551349536E-01
     2.065028437165612        0.9349091721695280E-01
     2.070309839818210        0.9204074477037123E-01
     2.075591242470807        0.9060585858786084E-01
     2.080872645123405        0.8918606100009260E-01
     2.086154047776002        0.8778115623803841E-01
     2.091435450428599        0.8639095041668068E-01
     2.096716853081197        0.8501525151864943E-01
     2.101998255733795        0.8365386937788255E-01
     2.107279658386392        0.8230661566324153E-01
     2.112561061038989        0.8097330386211384E-01
     2.117842463691587        0.7965374926401653E-01
     2.123123866344184        0.7834776894417653E-01
     2.128405268996782        0.7705518174715840E-01
     2.133686671649379        0.7577580827047989E-01
     2.138968074301977        0.7450947084825220E-01
     2.144249476954574        0.7325599353483407E-01
     2.149530879607172        0.7201520208851393E-01
     2.154812282259769        0.7078692395526336E-01
     2.160093684912367        0.6957098825250084E-01
     2.165375087564964        0.6836722575299109E-01
     2.170656490217562        0.6717546886850637E-01
     2.175937892870159        0.6599555163368813E-01
     2.181219295522757        0.6482730969019478E-01
     2.186500698175354        0.6367058027058980E-01
     2.191782100827952        0.6252520218202705E-01
     2.197063503480549        0.6139101579131024E-01
     2.202344906133146        0.6026786300873496E-01
     2.207626308785744        0.5915558727184234E-01
     2.212907711438342        0.5805403352996586E-01
     2.218189114090939        0.5696304822842273E-01
     2.223470516743536        0.5588247929329054E-01
     2.228751919396134        0.5481217611580796E-01
     2.234033322048731        0.5375198953693511E-01
     2.239314724701329        0.5270177183213478E-01
     2.244596127353926        0.5166137669816333E-01
     2.249877530006524        0.5063065923307654E-01
     2.255158932659121        0.4960947592230177E-01
     2.260440335311719        0.4859768462624652E-01
     2.265721737964316        0.4759514456377703E-01
     2.271003140616914        0.4660171629206038E-01
     2.276284543269511        0.4561726170258909E-01
     2.281565945922109        0.4464164400781421E-01
     2.286847348574706        0.4367472771222920E-01
     2.292128751227303        0.4271637860426320E-01
     2.297410153879901        0.4176646374193777E-01
     2.302691556532499        0.4082485143878135E-01
     2.307972959185096        0.3989141124964521E-01
     2.313254361837693        0.3896601395604302E-01
     2.318535764490291        0.3804853155176381E-01
     2.323817167142888        0.3713883722854882E-01
     2.329098569795486        0.3623680536177332E-01
     2.334379972448083        0.3534231149618910E-01
     2.339661375100681        0.3445523233189696E-01
     2.344942777753278        0.3357544571034357E-01
     2.350224180405876        0.3270283060035915E-01
     2.355505583058473        0.3183726708425248E-01
     2.360786985711071        0.3097863634400157E-01
     2.366068388363668        0.3012682064745085E-01
     2.371349791016266        0.2928170333458332E-01
     2.376631193668863        0.2844316880385958E-01
     2.381912596321460        0.2761110249861143E-01
     2.387193998974058        0.2678539089350779E-01
     2.392475401626656        0.2596592148364224E-01
     2.397756804279253        0.2515258291828579E-01
     2.403038206931850        0.2434526678556322E-01
     2.408319609584448        0.2354387554083704E-01
     2.413601012237045        0.2274833996612595E-01
     2.418882414889643        0.2195864295545566E-01
     2.424163817542240        0.2117484246236681E-01
     2.429445220194838        0.2039708792962336E-01
     2.434726622847435        0.1962562800740062E-01
     2.440008025500033        0.1886081006668533E-01
     2.445289428152630        0.1810307331650899E-01
     2.450570830805228        0.1735293761881085E-01
     2.455852233457825        0.1661098986105375E-01
     2.461133636110423        0.1587786933254122E-01
     2.466415038763020        0.1515425313141609E-01
     2.471696441415618        0.1444084227661716E-01
     2.476977844068215        0.1373834892926994E-01
     2.482259246720813        0.1304748493399406E-01
     2.487540649373410        0.1236895175792434E-01
     2.492822052026007        0.1170343181838004E-01
     2.498103454678605        0.1105158113635333E-01
     2.503384857331203        0.1041402322208407E-01
     2.508666259983800        0.9791344083488569E-02
     2.513947662636397        0.9184088242738331E-02
     2.519229065288995        0.8592755647116829E-02
     2.524510467941592        0.8017799364739184E-02
     2.529791870594190        0.7459623962125275E-02
     2.535073273246788        0.6918584467705399E-02
     2.540354675899385        0.6394985832248422E-02
     2.545636078551982        0.5889082803354936E-02
     2.550917481204580        0.5401080135911708E-02
     2.556198883857177        0.4931133063179475E-02
     2.561480286509775        0.4479347953167189E-02
     2.566761689162372        0.4045783070849340E-02
     2.572043091814970        0.3630449356501429E-02
     2.577324494467567        0.3233311110348504E-02
     2.582605897120164        0.2854286437139710E-02
     2.587887299772762        0.2493247238672168E-02
     2.593168702425360        0.2150018422711899E-02
     2.598450105077957        0.1824375770817540E-02
     2.603731507730554        0.1516041457341360E-02
     2.609012910383152        0.1224675248751570E-02
     2.614294313035749        0.9498571501157929E-03
     2.619575715688347        0.6910512398313446E-03
     2.624857118340945        0.4475212476515242E-03
     2.630138520993542        0.2180874825301091E-03
     2.635419923646139         0.000000000000000    
  0  4  1  0  2.000000   #orbital l, n, z, is_polarized, population
 500    0.1371539501987594E-01     6.843982114918092     # npts, delta, cutoff
     0.000000000000000        0.3852463161748199    
    0.1371539501987594E-01    0.3854203378333633    
    0.2743079003975187E-01    0.3859641491470202    